                         Program Version 5.0.2 -  RELEASE  -
|  1> ! VeryTightSCF DLPNO-MP2 NormalPNO RIJCOSX SlowConv DIIS NOTRAH
|  2> %maxcore 4000
|  3> %pal
|  4>   nprocs 4
|  5> end
|  6> %method
|  7>   Method HF
|  8>   RI on
|  9>   RunTyp Energy
| 10> end
| 11> %basis
| 12>   Basis "def2-TZVPP"
| 13>   Aux "def2/J"
| 14>   AuxC "def2-TZVPP/C"
| 15> end
| 16> %scf
| 17>   HFTyp uhf
| 18>   Guess Hueckel
| 19>   AutoStart True
| 20>   SCFMode Direct
| 21>   MaxIter 1000
| 22>   sthresh 1e-6
| 23> end
| 24> %coords
| 25>   CTyp xyz
| 26>   Mult 3
| 27>   Units angs
| 28>   coords
| 29> O                      0.00000000000    0.00000000000    0.00000000000
| 30>   end
| 31> end
| 32>
| 33>                          ****END OF INPUT****

CARTESIAN COORDINATES (ANGSTROEM)
---------------------------------
  O      0.000000    0.000000    0.000000

 Total Charge           Charge          ....    0
 Multiplicity           Mult            ....    3
 Number of Electrons    NEL             ....    8
 Basis Dimension        Dim             ....   31

ORBITAL ENERGIES
----------------
                 SPIN UP ORBITALS
  NO   OCC          E(Eh)            E(eV)
   0   1.0000     -20.705928      -563.4369
   1   1.0000      -1.416259       -38.5384
   2   1.0000      -0.709249       -19.2997
   3   1.0000      -0.709249       -19.2997
   4   1.0000      -0.610027       -16.5997
   5   0.0000       0.471863        12.8400
   6   0.0000       0.526313        14.3217
   7   0.0000       0.526313        14.3217
   8   0.0000       0.561805        15.2875
   9   0.0000       1.609725        43.8028

                 SPIN DOWN ORBITALS
  NO   OCC          E(Eh)            E(eV)
   0   1.0000     -20.626629      -561.2791
   1   1.0000      -1.074512       -29.2390
   2   1.0000      -0.520896       -14.1743
   3   0.0000       0.099943         2.7196
   4   0.0000       0.099943         2.7196
   5   0.0000       0.515977        14.0404
   6   0.0000       0.584685        15.9101
   7   0.0000       0.675250        18.3745

MULLIKEN ATOMIC CHARGES AND SPIN POPULATIONS
--------------------------------------------
   0 O :   -0.000000    2.000000
Sum of atomic charges         :   -0.0000000

LOEWDIN ATOMIC CHARGES AND SPIN POPULATIONS
-------------------------------------------
   0 O :    0.000000    2.000000

MP2 TOTAL ENERGY:      -74.957142140 Eh
FINAL SINGLE POINT ENERGY       -74.957142140360

DIPOLE MOMENT
-------------
                                X             Y             Z
Electronic contribution:     -0.00000      -0.00000      -0.00000
Nuclear contribution   :      0.00000       0.00000       0.00000
                        -----------------------------------------
Total Dipole Moment    :     -0.00000      -0.00000      -0.00000
                        -----------------------------------------
Magnitude (a.u.)       :      0.00000
Magnitude (Debye)      :      0.00000

Rotational constants in cm-1:     0.000000     0.000000     0.000000
Rotational constants in MHz :     0.000000     0.000000     0.000000

                             ****ORCA TERMINATED NORMALLY****
TOTAL RUN TIME: 0 days 0 hours 0 minutes 1 seconds 423 msec
