                         Program Version 5.0.1 -  RELEASE  -
|  1> ! VeryTightSCF DLPNO-B2PLYP NormalPNO RIJCOSX SlowConv DIIS
|  2> %maxcore 72000
|  3> %pal
|  4> nprocs 16
|  5> end
|  6> %pointcharges "orca.bq"
|  7> %method
|  8> Method DFT
|  9> RI on
| 10> RunTyp Energy
| 11> NewNCore Ti 10 end
| 12> NewNCore O 2 end
| 13> end
| 14> %basis
| 15> NewGTO O
| 16> "aug-cc-pVTZ"
| 17> end
| 18> NewGTO Ti
| 19> "cc-pwCVTZ"
| 20> end
| 21> Aux "def2/J"
| 22> AuxC "AutoAux"
| 23> end
| 24> %scf
| 25> HFTyp rks
| 26> Guess Hueckel
| 27> AutoStart True
| 28> SCFMode Direct
| 29> MaxIter 1000
| 30> sthresh 1e-6
| 31> AutoTRAHIter 100
| 32> end
| 33> %coords
| 34> CTyp xyz
| 35> Mult 1
| 36> Units angs
| 37>   Charge -12
| 38>   coords
| 39> O                       0.00000000000    0.00000000000    0.00000000000
| 40> Ti                      0.00000536997    1.48055149700   -1.06892606631
| 41> Ti                      0.00000552101   -1.48055312386   -1.06892138720
| 42> O                       0.00000442396   -0.00000111986   -2.54840301833
| 43> O                      -2.03525914147    1.48054518365   -1.11149385695
| 44> O                       2.03526534753    1.48054527935   -1.11149163807
| 45> O                       2.03526471018   -1.48054700097   -1.11149295951
| 46> O                      -2.03525907462   -1.48054722666   -1.11149503385
| 47> O                      -0.00000037752    2.96109155033   -0.00000271770
| 48> O                      -0.00000037752   -2.96109552160   -0.00000271770
| 49> O                       0.00000449994    2.96109199200   -2.54840438198
| 50> O                       0.00000449994   -2.96109507993   -2.54840438198
| 51> Ti>    4.00000000000    3.25402319191   -0.00000112036   -1.42716202606
| 52> NewECP
| 53> N_core 0
| 54>   lmax f
| 55>   s 2
| 56>    1      0.860000       9.191690  2
| 57>    2      0.172000       0.008301  2
| 58>   p 2
| 59>    1      0.860000      17.997720  2
| 60>    2      0.172000      -0.032600  2
| 61>   d 2
| 62>    1      1.600000      -9.504310  2
| 63>    2      0.320000      -0.151370  2
| 64>   f 1
| 65>    1      1.000000000    0.000000000 2
| 66> end
| 67> Ti>    4.00000000000   -3.25401610555   -0.00000112036   -1.42716202606
| 68> NewECP
| 69> N_core 0
| 70>   lmax f
| 71>   s 2
| 72>    1      0.860000       9.191690  2
| 73>    2      0.172000       0.008301  2
| 74>   p 2
| 75>    1      0.860000      17.997720  2
| 76>    2      0.172000      -0.032600  2
| 77>   d 2
| 78>    1      1.600000      -9.504310  2
| 79>    2      0.320000      -0.151370  2
| 80>   f 1
| 81>    1      1.000000000    0.000000000 2
| 82> end
| 83> Ti>    4.00000000000   -0.00005220374   -0.00000071014   -4.41288396045
| 84> NewECP
| 85> N_core 0
| 86>   lmax f
| 87>   s 2
| 88>    1      0.860000       9.191690  2
| 89>    2      0.172000       0.008301  2
| 90>   p 2
| 91>    1      0.860000      17.997720  2
| 92>    2      0.172000      -0.032600  2
| 93>   d 2
| 94>    1      1.600000      -9.504310  2
| 95>    2      0.320000      -0.151370  2
| 96>   f 1
| 97>    1      1.000000000    0.000000000 2
| 98> end
| 99> Ti>    4.00000000000    0.00000552101    4.44163394806   -1.06892138720
|100> NewECP
|101> N_core 0
|102>   lmax f
|103>   s 2
|104>    1      0.860000       9.191690  2
|105>    2      0.172000       0.008301  2
|106>   p 2
|107>    1      0.860000      17.997720  2
|108>    2      0.172000      -0.032600  2
|109>   d 2
|110>    1      1.600000      -9.504310  2
|111>    2      0.320000      -0.151370  2
|112>   f 1
|113>    1      1.000000000    0.000000000 2
|114> end
|115> Ti>    4.00000000000    0.00000536997   -4.44163557493   -1.06892606631
|116> NewECP
|117> N_core 0
|118>   lmax f
|119>   s 2
|120>    1      0.860000       9.191690  2
|121>    2      0.172000       0.008301  2
|122>   p 2
|123>    1      0.860000      17.997720  2
|124>    2      0.172000      -0.032600  2
|125>   d 2
|126>    1      1.600000      -9.504310  2
|127>    2      0.320000      -0.151370  2
|128>   f 1
|129>    1      1.000000000    0.000000000 2
|130> end
|131> Ti>    4.00000000000   -3.25401668289    2.96109302555   -1.42716235830
|132> NewECP
|133> N_core 0
|134>   lmax f
|135>   s 2
|136>    1      0.860000       9.191690  2
|137>    2      0.172000       0.008301  2
|138>   p 2
|139>    1      0.860000      17.997720  2
|140>    2      0.172000      -0.032600  2
|141>   d 2
|142>    1      1.600000      -9.504310  2
|143>    2      0.320000      -0.151370  2
|144>   f 1
|145>    1      1.000000000    0.000000000 2
|146> end
|147> Ti>    4.00000000000    3.25402261457    2.96109302555   -1.42716235830
|148> NewECP
|149> N_core 0
|150>   lmax f
|151>   s 2
|152>    1      0.860000       9.191690  2
|153>    2      0.172000       0.008301  2
|154>   p 2
|155>    1      0.860000      17.997720  2
|156>    2      0.172000      -0.032600  2
|157>   d 2
|158>    1      1.600000      -9.504310  2
|159>    2      0.320000      -0.151370  2
|160>   f 1
|161>    1      1.000000000    0.000000000 2
|162> end
|163> Ti>    4.00000000000    3.25402261457   -2.96109404638   -1.42716235830
|164> NewECP
|165> N_core 0
|166>   lmax f
|167>   s 2
|168>    1      0.860000       9.191690  2
|169>    2      0.172000       0.008301  2
|170>   p 2
|171>    1      0.860000      17.997720  2
|172>    2      0.172000      -0.032600  2
|173>   d 2
|174>    1      1.600000      -9.504310  2
|175>    2      0.320000      -0.151370  2
|176>   f 1
|177>    1      1.000000000    0.000000000 2
|178> end
|179> Ti>    4.00000000000   -3.25401668289   -2.96109404638   -1.42716235830
|180> NewECP
|181> N_core 0
|182>   lmax f
|183>   s 2
|184>    1      0.860000       9.191690  2
|185>    2      0.172000       0.008301  2
|186>   p 2
|187>    1      0.860000      17.997720  2
|188>    2      0.172000      -0.032600  2
|189>   d 2
|190>    1      1.600000      -9.504310  2
|191>    2      0.320000      -0.151370  2
|192>   f 1
|193>    1      1.000000000    0.000000000 2
|194> end
|195> Ti>    4.00000000000   -0.00005206359    2.96109301637   -4.41288206312
|196> NewECP
|197> N_core 0
|198>   lmax f
|199>   s 2
|200>    1      0.860000       9.191690  2
|201>    2      0.172000       0.008301  2
|202>   p 2
|203>    1      0.860000      17.997720  2
|204>    2      0.172000      -0.032600  2
|205>   d 2
|206>    1      1.600000      -9.504310  2
|207>    2      0.320000      -0.151370  2
|208>   f 1
|209>    1      1.000000000    0.000000000 2
|210> end
|211> Ti>    4.00000000000   -0.00005206359   -2.96109405556   -4.41288206312
|212> NewECP
|213> N_core 0
|214>   lmax f
|215>   s 2
|216>    1      0.860000       9.191690  2
|217>    2      0.172000       0.008301  2
|218>   p 2
|219>    1      0.860000      17.997720  2
|220>    2      0.172000      -0.032600  2
|221>   d 2
|222>    1      1.600000      -9.504310  2
|223>    2      0.320000      -0.151370  2
|224>   f 1
|225>    1      1.000000000    0.000000000 2
|226> end
|227> Ti>    4.00000000000    3.25395215162    1.48054533538   -4.59991327640
|228> NewECP
|229> N_core 0
|230>   lmax f
|231>   s 2
|232>    1      0.860000       9.191690  2
|233>    2      0.172000       0.008301  2
|234>   p 2
|235>    1      0.860000      17.997720  2
|236>    2      0.172000      -0.032600  2
|237>   d 2
|238>    1      1.600000      -9.504310  2
|239>    2      0.320000      -0.151370  2
|240>   f 1
|241>    1      1.000000000    0.000000000 2
|242> end
|243> Ti>    4.00000000000    3.25395195581   -1.48054722422   -4.59991284715
|244> NewECP
|245> N_core 0
|246>   lmax f
|247>   s 2
|248>    1      0.860000       9.191690  2
|249>    2      0.172000       0.008301  2
|250>   p 2
|251>    1      0.860000      17.997720  2
|252>    2      0.172000      -0.032600  2
|253>   d 2
|254>    1      1.600000      -9.504310  2
|255>    2      0.320000      -0.151370  2
|256>   f 1
|257>    1      1.000000000    0.000000000 2
|258> end
|259> Ti>    4.00000000000   -3.25408714585    1.48054533538   -4.59991327640
|260> NewECP
|261> N_core 0
|262>   lmax f
|263>   s 2
|264>    1      0.860000       9.191690  2
|265>    2      0.172000       0.008301  2
|266>   p 2
|267>    1      0.860000      17.997720  2
|268>    2      0.172000      -0.032600  2
|269>   d 2
|270>    1      1.600000      -9.504310  2
|271>    2      0.320000      -0.151370  2
|272>   f 1
|273>    1      1.000000000    0.000000000 2
|274> end
|275> Ti>    4.00000000000   -3.25408734165   -1.48054722422   -4.59991284715
|276> NewECP
|277> N_core 0
|278>   lmax f
|279>   s 2
|280>    1      0.860000       9.191690  2
|281>    2      0.172000       0.008301  2
|282>   p 2
|283>    1      0.860000      17.997720  2
|284>    2      0.172000      -0.032600  2
|285>   d 2
|286>    1      1.600000      -9.504310  2
|287>    2      0.320000      -0.151370  2
|288>   f 1
|289>    1      1.000000000    0.000000000 2
|290> end
|291> Ti>    4.00000000000   -6.50803392749    1.48055149700   -1.06892606631
|292> NewECP
|293> N_core 0
|294>   lmax f
|295>   s 2
|296>    1      0.860000       9.191690  2
|297>    2      0.172000       0.008301  2
|298>   p 2
|299>    1      0.860000      17.997720  2
|300>    2      0.172000      -0.032600  2
|301>   d 2
|302>    1      1.600000      -9.504310  2
|303>    2      0.320000      -0.151370  2
|304>   f 1
|305>    1      1.000000000    0.000000000 2
|306> end
|307> Ti>    4.00000000000    6.50804466744    1.48055149700   -1.06892606631
|308> NewECP
|309> N_core 0
|310>   lmax f
|311>   s 2
|312>    1      0.860000       9.191690  2
|313>    2      0.172000       0.008301  2
|314>   p 2
|315>    1      0.860000      17.997720  2
|316>    2      0.172000      -0.032600  2
|317>   d 2
|318>    1      1.600000      -9.504310  2
|319>    2      0.320000      -0.151370  2
|320>   f 1
|321>    1      1.000000000    0.000000000 2
|322> end
|323> Ti>    4.00000000000    6.50804481848   -1.48055312386   -1.06892138720
|324> NewECP
|325> N_core 0
|326>   lmax f
|327>   s 2
|328>    1      0.860000       9.191690  2
|329>    2      0.172000       0.008301  2
|330>   p 2
|331>    1      0.860000      17.997720  2
|332>    2      0.172000      -0.032600  2
|333>   d 2
|334>    1      1.600000      -9.504310  2
|335>    2      0.320000      -0.151370  2
|336>   f 1
|337>    1      1.000000000    0.000000000 2
|338> end
|339> Ti>    4.00000000000   -6.50803377645   -1.48055312386   -1.06892138720
|340> NewECP
|341> N_core 0
|342>   lmax f
|343>   s 2
|344>    1      0.860000       9.191690  2
|345>    2      0.172000       0.008301  2
|346>   p 2
|347>    1      0.860000      17.997720  2
|348>    2      0.172000      -0.032600  2
|349>   d 2
|350>    1      1.600000      -9.504310  2
|351>    2      0.320000      -0.151370  2
|352>   f 1
|353>    1      1.000000000    0.000000000 2
|354> end
|355> Ti>    4.00000000000   -3.25401610555    5.92218595157   -1.42716202606
|356> NewECP
|357> N_core 0
|358>   lmax f
|359>   s 2
|360>    1      0.860000       9.191690  2
|361>    2      0.172000       0.008301  2
|362>   p 2
|363>    1      0.860000      17.997720  2
|364>    2      0.172000      -0.032600  2
|365>   d 2
|366>    1      1.600000      -9.504310  2
|367>    2      0.320000      -0.151370  2
|368>   f 1
|369>    1      1.000000000    0.000000000 2
|370> end
|371> Ti>    4.00000000000    3.25402319191    5.92218595157   -1.42716202606
|372> NewECP
|373> N_core 0
|374>   lmax f
|375>   s 2
|376>    1      0.860000       9.191690  2
|377>    2      0.172000       0.008301  2
|378>   p 2
|379>    1      0.860000      17.997720  2
|380>    2      0.172000      -0.032600  2
|381>   d 2
|382>    1      1.600000      -9.504310  2
|383>    2      0.320000      -0.151370  2
|384>   f 1
|385>    1      1.000000000    0.000000000 2
|386> end
|387> Ti>    4.00000000000    3.25402319191   -5.92218819228   -1.42716202606
|388> NewECP
|389> N_core 0
|390>   lmax f
|391>   s 2
|392>    1      0.860000       9.191690  2
|393>    2      0.172000       0.008301  2
|394>   p 2
|395>    1      0.860000      17.997720  2
|396>    2      0.172000      -0.032600  2
|397>   d 2
|398>    1      1.600000      -9.504310  2
|399>    2      0.320000      -0.151370  2
|400>   f 1
|725> N_core 0
|726>   lmax f
|727>   s 2
|728>    1      0.860000       9.191690  2
|729>    2      0.172000       0.008301  2
|730>   p 2
|731>    1      0.860000      17.997720  2
|732>    2      0.172000      -0.032600  2
|733>   d 2
|734>    1      1.600000      -9.504310  2
|735>    2      0.320000      -0.151370  2
|736>   f 1
|737>    1      1.000000000    0.000000000 2
|738> end
|739> Ti>    4.00000000000    3.25401657974   -0.00000100232   -7.78540932970
|740> NewECP
|741> N_core 0
|742>   lmax f
|743>   s 2
|744>    1      0.860000       9.191690  2
|745>    2      0.172000       0.008301  2
|746>   p 2
|747>    1      0.860000      17.997720  2
|748>    2      0.172000      -0.032600  2
|749>   d 2
|750>    1      1.600000      -9.504310  2
|751>    2      0.320000      -0.151370  2
|752>   f 1
|753>    1      1.000000000    0.000000000 2
|754> end
|755> Ti>    4.00000000000   -3.25402271772   -0.00000100232   -7.78540932970
|756> NewECP
|757> N_core 0
|758>   lmax f
|759>   s 2
|760>    1      0.860000       9.191690  2
|761>    2      0.172000       0.008301  2
|762>   p 2
|763>    1      0.860000      17.997720  2
|764>    2      0.172000      -0.032600  2
|765>   d 2
|766>    1      1.600000      -9.504310  2
|767>    2      0.320000      -0.151370  2
|768>   f 1
|769>    1      1.000000000    0.000000000 2
|770> end
|771> Ti>    4.00000000000   -3.25402271772    2.96109253364   -7.78540932970
|772> NewECP
|773> N_core 0
|774>   lmax f
|775>   s 2
|776>    1      0.860000       9.191690  2
|777>    2      0.172000       0.008301  2
|778>   p 2
|779>    1      0.860000      17.997720  2
|780>    2      0.172000      -0.032600  2
|781>   d 2
|782>    1      1.600000      -9.504310  2
|783>    2      0.320000      -0.151370  2
|784>   f 1
|785>    1      1.000000000    0.000000000 2
|786> end
|787> Ti>    4.00000000000    3.25401657974    2.96109253364   -7.78540932970
|788> NewECP
|789> N_core 0
|790>   lmax f
|791>   s 2
|792>    1      0.860000       9.191690  2
|793>    2      0.172000       0.008301  2
|794>   p 2
|795>    1      0.860000      17.997720  2
|796>    2      0.172000      -0.032600  2
|797>   d 2
|798>    1      1.600000      -9.504310  2
|799>    2      0.320000      -0.151370  2
|800>   f 1
|801>    1      1.000000000    0.000000000 2
|802> end
|803> Ti>    4.00000000000    3.25401657974   -2.96109453828   -7.78540932970
|804> NewECP
|805> N_core 0
|806>   lmax f
|807>   s 2
|808>    1      0.860000       9.191690  2
|809>    2      0.172000       0.008301  2
|810>   p 2
|811>    1      0.860000      17.997720  2
|812>    2      0.172000      -0.032600  2
|813>   d 2
|814>    1      1.600000      -9.504310  2
|815>    2      0.320000      -0.151370  2
|816>   f 1
|817>    1      1.000000000    0.000000000 2
|818> end
|819> Ti>    4.00000000000   -3.25402271772   -2.96109453828   -7.78540932970
|820> NewECP
|821> N_core 0
|822>   lmax f
|823>   s 2
|824>    1      0.860000       9.191690  2
|825>    2      0.172000       0.008301  2
|826>   p 2
|827>    1      0.860000      17.997720  2
|828>    2      0.172000      -0.032600  2
|829>   d 2
|830>    1      1.600000      -9.504310  2
|831>    2      0.320000      -0.151370  2
|832>   f 1
|833>    1      1.000000000    0.000000000 2
|834> end
|835> Ti>    4.00000000000   -0.00000306899    4.44163930162   -7.78540932970
|836> NewECP
|837> N_core 0
|838>   lmax f
|839>   s 2
|840>    1      0.860000       9.191690  2
|841>    2      0.172000       0.008301  2
|842>   p 2
|843>    1      0.860000      17.997720  2
|844>    2      0.172000      -0.032600  2
|845>   d 2
|846>    1      1.600000      -9.504310  2
|847>    2      0.320000      -0.151370  2
|848>   f 1
|849>    1      1.000000000    0.000000000 2
|850> end
|851> Ti>    4.00000000000   -0.00000306899   -4.44164130627   -7.78540932970
|852> NewECP
|853> N_core 0
|854>   lmax f
|855>   s 2
|856>    1      0.860000       9.191690  2
|857>    2      0.172000       0.008301  2
|858>   p 2
|859>    1      0.860000      17.997720  2
|860>    2      0.172000      -0.032600  2
|861>   d 2
|862>    1      1.600000      -9.504310  2
|863>    2      0.320000      -0.151370  2
|864>   f 1
|865>    1      1.000000000    0.000000000 2
|866> end
|867> Ti>    4.00000000000   -3.25408714585    7.40273240730   -4.59991327640
|868> NewECP
|869> N_core 0
|870>   lmax f
|871>   s 2
|872>    1      0.860000       9.191690  2
|873>    2      0.172000       0.008301  2
|874>   p 2
|875>    1      0.860000      17.997720  2
|876>    2      0.172000      -0.032600  2
|877>   d 2
|878>    1      1.600000      -9.504310  2
|879>    2      0.320000      -0.151370  2
|880>   f 1
|881>    1      1.000000000    0.000000000 2
|882> end
|883> Ti>    4.00000000000    3.25395215162    7.40273240730   -4.59991327640
|884> NewECP
|885> N_core 0
|886>   lmax f
|887>   s 2
|888>    1      0.860000       9.191690  2
|889>    2      0.172000       0.008301  2
|890>   p 2
|891>    1      0.860000      17.997720  2
|892>    2      0.172000      -0.032600  2
|893>   d 2
|894>    1      1.600000      -9.504310  2
|895>    2      0.320000      -0.151370  2
|896>   f 1
|897>    1      1.000000000    0.000000000 2
|898> end
|899> Ti>    4.00000000000    3.25395195581   -7.40273429615   -4.59991284715
|900> NewECP
|901> N_core 0
|902>   lmax f
|903>   s 2
|904>    1      0.860000       9.191690  2
|905>    2      0.172000       0.008301  2
|906>   p 2
|907>    1      0.860000      17.997720  2
|908>    2      0.172000      -0.032600  2
|909>   d 2
|910>    1      1.600000      -9.504310  2
|911>    2      0.320000      -0.151370  2
|912>   f 1
|913>    1      1.000000000    0.000000000 2
|914> end
|915> Ti>    4.00000000000   -3.25408734165   -7.40273429615   -4.59991284715
|916> NewECP
|917> N_core 0
|918>   lmax f
|919>   s 2
|920>    1      0.860000       9.191690  2
|921>    2      0.172000       0.008301  2
|922>   p 2
|923>    1      0.860000      17.997720  2
|924>    2      0.172000      -0.032600  2
|925>   d 2
|926>    1      1.600000      -9.504310  2
|927>    2      0.320000      -0.151370  2
|928>   f 1
|929>    1      1.000000000    0.000000000 2
|930> end
|931> Ti>    4.00000000000   -3.25401668289    8.88328009748   -1.42716235830
|932> NewECP
|933> N_core 0
|934>   lmax f
|935>   s 2
|936>    1      0.860000       9.191690  2
|937>    2      0.172000       0.008301  2
|938>   p 2
|939>    1      0.860000      17.997720  2
|940>    2      0.172000      -0.032600  2
|941>   d 2
|942>    1      1.600000      -9.504310  2
|943>    2      0.320000      -0.151370  2
|944>   f 1
|945>    1      1.000000000    0.000000000 2
|946> end
|947> Ti>    4.00000000000    3.25402261457    8.88328009748   -1.42716235830
|948> NewECP
|949> N_core 0
|950>   lmax f
|951>   s 2
|952>    1      0.860000       9.191690  2
|953>    2      0.172000       0.008301  2
|954>   p 2
|955>    1      0.860000      17.997720  2
|956>    2      0.172000      -0.032600  2
|957>   d 2
|958>    1      1.600000      -9.504310  2
|959>    2      0.320000      -0.151370  2
|960>   f 1
|961>    1      1.000000000    0.000000000 2
|962> end
|963> Ti>    4.00000000000    3.25402261457   -8.88328111830   -1.42716235830
|964> NewECP
|965> N_core 0
|966>   lmax f
|967>   s 2
|968>    1      0.860000       9.191690  2
|969>    2      0.172000       0.008301  2
|970>   p 2
|971>    1      0.860000      17.997720  2
|972>    2      0.172000      -0.032600  2
|973>   d 2
|974>    1      1.600000      -9.504310  2
|975>    2      0.320000      -0.151370  2
|976>   f 1
|977>    1      1.000000000    0.000000000 2
|978> end
|979> Ti>    4.00000000000   -3.25401668289   -8.88328111830   -1.42716235830
|980> NewECP
|981> N_core 0
|982>   lmax f
|983>   s 2
|984>    1      0.860000       9.191690  2
|985>    2      0.172000       0.008301  2
|986>   p 2
|987>    1      0.860000      17.997720  2
|988>    2      0.172000      -0.032600  2
|989>   d 2
|990>    1      1.600000      -9.504310  2
|991>    2      0.320000      -0.151370  2
|992>   f 1
|993>    1      1.000000000    0.000000000 2
|994> end
|995> Ti>    4.00000000000   -0.00005206359    8.88328008829   -4.41288206312
|996> NewECP
|997> N_core 0
|998>   lmax f
|999>   s 2
|1000>    1      0.860000       9.191690  2
|1001>    2      0.172000       0.008301  2
|1002>   p 2
|1003>    1      0.860000      17.997720  2
|1004>    2      0.172000      -0.032600  2
|1005>   d 2
|1006>    1      1.600000      -9.504310  2
|1007>    2      0.320000      -0.151370  2
|1008>   f 1
|1009>    1      1.000000000    0.000000000 2
|1010> end
|1011> Ti>    4.00000000000   -0.00005206359   -8.88328112748   -4.41288206312
|1012> NewECP
|1013> N_core 0
|1014>   lmax f
|1015>   s 2
|1016>    1      0.860000       9.191690  2
|1017>    2      0.172000       0.008301  2
|1018>   p 2
|1019>    1      0.860000      17.997720  2
|1020>    2      0.172000      -0.032600  2
|1021>   d 2
|1022>    1      1.600000      -9.504310  2
|1023>    2      0.320000      -0.151370  2
|1024>   f 1
|1025>    1      1.000000000    0.000000000 2
|1026> end
|1027> Ti>    4.00000000000   -3.25402271772    5.92218606960   -7.78540932970
|1028> NewECP
|1029> N_core 0
|1030>   lmax f
|1031>   s 2
|1032>    1      0.860000       9.191690  2
|1033>    2      0.172000       0.008301  2
|1034>   p 2
|1035>    1      0.860000      17.997720  2
|1036>    2      0.172000      -0.032600  2
|1037>   d 2
|1038>    1      1.600000      -9.504310  2
|1039>    2      0.320000      -0.151370  2
|1040>   f 1
|1041>    1      1.000000000    0.000000000 2
|1042> end
|1043> Ti>    4.00000000000    3.25401657974    5.92218606960   -7.78540932970
|1044> NewECP
|1045> N_core 0
|1046>   lmax f
|1047>   s 2
|1048>    1      0.860000       9.191690  2
|1049>    2      0.172000       0.008301  2
|1050>   p 2
|1051>    1      0.860000      17.997720  2
|1052>    2      0.172000      -0.032600  2
|1053>   d 2
|1054>    1      1.600000      -9.504310  2
|1055>    2      0.320000      -0.151370  2
|1056>   f 1
|1057>    1      1.000000000    0.000000000 2
|1058> end
|1059> Ti>    4.00000000000    3.25401657974   -5.92218807425   -7.78540932970
|1060> NewECP
|1061> N_core 0
|1062>   lmax f
|1063>   s 2
|1064>    1      0.860000       9.191690  2
|1065>    2      0.172000       0.008301  2
|1066>   p 2
|1067>    1      0.860000      17.997720  2
|1068>    2      0.172000      -0.032600  2
|1069>   d 2
|1070>    1      1.600000      -9.504310  2
|1071>    2      0.320000      -0.151370  2
|1072>   f 1
|1073>    1      1.000000000    0.000000000 2
|1074> end
|1075> Ti>    4.00000000000   -3.25402271772   -5.92218807425   -7.78540932970
|1076> NewECP
|1077> N_core 0
|1078>   lmax f
|1079>   s 2
|1080>    1      0.860000       9.191690  2
|1081>    2      0.172000       0.008301  2
|1082>   p 2
|1083>    1      0.860000      17.997720  2
|1084>    2      0.172000      -0.032600  2
|1085>   d 2
|1086>    1      1.600000      -9.504310  2
|1087>    2      0.320000      -0.151370  2
|1088>   f 1
|1089>    1      1.000000000    0.000000000 2
|1090> end
|1091> Ti>    4.00000000000   -0.00000306899    7.40273283758   -7.78540932970
|1092> NewECP
|1093> N_core 0
|1094>   lmax f
|1095>   s 2
|1096>    1      0.860000       9.191690  2
|1097>    2      0.172000       0.008301  2
|1098>   p 2
|1099>    1      0.860000      17.997720  2
|1100>    2      0.172000      -0.032600  2
|1101>   d 2
|1102>    1      1.600000      -9.504310  2
|1103>    2      0.320000      -0.151370  2
|1104>   f 1
|1105>    1      1.000000000    0.000000000 2
|1106> end
|1107> Ti>    4.00000000000   -0.00000306899   -7.40273484223   -7.78540932970
|1108> NewECP
|1109> N_core 0
|1110>   lmax f
|1111>   s 2
|1112>    1      0.860000       9.191690  2
|1113>    2      0.172000       0.008301  2
|1114>   p 2
|1115>    1      0.860000      17.997720  2
|1116>    2      0.172000      -0.032600  2
|1117>   d 2
|1118>    1      1.600000      -9.504310  2
|1119>    2      0.320000      -0.151370  2
|1120>   f 1
|1121>    1      1.000000000    0.000000000 2
|1122> end
|1123>   end
|1124> endd                         ****END OF INPUT****

CARTESIAN COORDINATES (ANGSTROEM)
---------------------------------
  O      0.000000    0.000000    0.000000
  Ti     0.000005    1.480551   -1.068926
  Ti     0.000006   -1.480553   -1.068921
  O      0.000004   -0.000001   -2.548403
  O     -2.035259    1.480545   -1.111494
  O      2.035265    1.480545   -1.111492
  O      2.035265   -1.480547   -1.111493
  O     -2.035259   -1.480547   -1.111495
  O     -0.000000    2.961092   -0.000003
  O     -0.000000   -2.961096   -0.000003
  O      0.000004    2.961092   -2.548404
  O      0.000004   -2.961095   -2.548404
  Ti>    3.254023   -0.000001   -1.427162
  Ti>   -3.254016   -0.000001   -1.427162
  Ti>   -0.000052   -0.000001   -4.412884
  Ti>    0.000006    4.441634   -1.068921
  Ti>    0.000005   -4.441636   -1.068926
  Ti>   -3.254017    2.961093   -1.427162
  Ti>    3.254023    2.961093   -1.427162
  Ti>    3.254023   -2.961094   -1.427162
  Ti>   -3.254017   -2.961094   -1.427162
  Ti>   -0.000052    2.961093   -4.412882
  Ti>   -0.000052   -2.961094   -4.412882
  Ti>    3.253952    1.480545   -4.599913
  Ti>    3.253952   -1.480547   -4.599913
  Ti>   -3.254087    1.480545   -4.599913
  Ti>   -3.254087   -1.480547   -4.599913
  Ti>   -6.508034    1.480551   -1.068926
  Ti>    6.508045    1.480551   -1.068926
  Ti>    6.508045   -1.480553   -1.068921
  Ti>   -6.508034   -1.480553   -1.068921
  Ti>   -3.254016    5.922186   -1.427162
  Ti>    3.254023    5.922186   -1.427162
  Ti>    3.254023   -5.922188   -1.427162
  Ti>   -3.254016   -5.922188   -1.427162
  Ti>    3.253952    4.441640   -4.599913
  Ti>    3.253952   -4.441642   -4.599913
  Ti>   -3.254087    4.441640   -4.599913
  Ti>   -3.254087   -4.441642   -4.599913
  Ti>   -0.000052    5.922186   -4.412884
  Ti>   -0.000052   -5.922188   -4.412884
  Ti>    0.000005    7.402739   -1.068926
  Ti>    0.000006   -7.402740   -1.068921
  Ti>    6.507987   -0.000001   -4.412884
  Ti>   -6.508092   -0.000001   -4.412884
  Ti>   -0.000003    1.480546   -7.785409
  Ti>   -0.000003   -1.480548   -7.785409
  Ti>   -6.508034    4.441634   -1.068921
  Ti>    6.508045    4.441634   -1.068921
  Ti>    6.508045   -4.441636   -1.068926
  Ti>   -6.508034   -4.441636   -1.068926
  Ti>    6.507987    2.961093   -4.412882
  Ti>    6.507987   -2.961094   -4.412882
  Ti>   -6.508091    2.961093   -4.412882
  Ti>   -6.508091   -2.961094   -4.412882
  Ti>    3.254017   -0.000001   -7.785409
  Ti>   -3.254023   -0.000001   -7.785409
  Ti>   -3.254023    2.961093   -7.785409
  Ti>    3.254017    2.961093   -7.785409
  Ti>    3.254017   -2.961095   -7.785409
  Ti>   -3.254023   -2.961095   -7.785409
  Ti>   -0.000003    4.441639   -7.785409
  Ti>   -0.000003   -4.441641   -7.785409
  Ti>   -3.254087    7.402732   -4.599913
  Ti>    3.253952    7.402732   -4.599913
  Ti>    3.253952   -7.402734   -4.599913
  Ti>   -3.254087   -7.402734   -4.599913
  Ti>   -3.254017    8.883280   -1.427162
  Ti>    3.254023    8.883280   -1.427162
  Ti>    3.254023   -8.883281   -1.427162
  Ti>   -3.254017   -8.883281   -1.427162
  Ti>   -0.000052    8.883280   -4.412882
  Ti>   -0.000052   -8.883281   -4.412882
  Ti>   -3.254023    5.922186   -7.785409
  Ti>    3.254017    5.922186   -7.785409
  Ti>    3.254017   -5.922188   -7.785409
  Ti>   -3.254023   -5.922188   -7.785409
  Ti>   -0.000003    7.402733   -7.785409
  Ti>   -0.000003   -7.402735   -7.785409

 Total Charge           Charge          ....  -12
 Multiplicity           Mult            ....    1
 Number of Electrons    NEL             ....  136
 Basis Dimension        Dim             ....  664

ORBITAL ENERGIES
----------------

  NO   OCC          E(Eh)            E(eV)
   0   2.0000    -180.748182     -4918.4081
   1   2.0000    -180.748182     -4918.4081
   2   2.0000     -20.610632      -560.8438
   3   2.0000     -20.610632      -560.8438
   4   2.0000     -19.654650      -534.8302
   5   2.0000     -19.654650      -534.8302
   6   2.0000     -19.654599      -534.8288
   7   2.0000     -19.654598      -534.8288
   8   2.0000     -19.644455      -534.5528
   9   2.0000     -19.644453      -534.5528
  10   2.0000     -19.638676      -534.3955
  11   2.0000     -19.628988      -534.1319
  12   2.0000     -19.587606      -533.0059
  13   2.0000     -19.587606      -533.0059
  14   2.0000     -17.180889      -467.5158
  15   2.0000     -17.180888      -467.5157
  16   2.0000     -17.180153      -467.4957
  17   2.0000     -17.180153      -467.4957
  18   2.0000     -17.178735      -467.4571
  19   2.0000     -17.178734      -467.4571
  20   2.0000      -2.631101       -71.5959
  21   2.0000      -2.630185       -71.5710
  22   2.0000      -1.670262       -45.4501
  23   2.0000      -1.661718       -45.2176
  24   2.0000      -1.660797       -45.1926
  25   2.0000      -1.659772       -45.1647
  26   2.0000      -1.659336       -45.1528
  27   2.0000      -1.657529       -45.1037
  28   2.0000      -1.076835       -29.3022
  29   2.0000      -1.070457       -29.1286
  30   2.0000      -1.066685       -29.0260
  31   2.0000      -1.061376       -28.8815
  32   2.0000      -1.050680       -28.5905
  33   2.0000      -1.049235       -28.5511
  34   2.0000      -1.018245       -27.7079
  35   2.0000      -0.974733       -26.5238
  36   2.0000      -0.967264       -26.3206
  37   2.0000      -0.964327       -26.2407
  38   2.0000      -0.488034       -13.2801
  39   2.0000      -0.485676       -13.2159
  40   2.0000      -0.470587       -12.8053
  41   2.0000      -0.470476       -12.8023
  42   2.0000      -0.463663       -12.6169
  43   2.0000      -0.461046       -12.5457
  44   2.0000      -0.453774       -12.3478
  45   2.0000      -0.452852       -12.3227
  46   2.0000      -0.445549       -12.1240
  47   2.0000      -0.437245       -11.8980
  48   2.0000      -0.431807       -11.7501
  49   2.0000      -0.429569       -11.6892
  50   2.0000      -0.427392       -11.6299
  51   2.0000      -0.424348       -11.5471
  52   2.0000      -0.420143       -11.4327
  53   2.0000      -0.411478       -11.1969
  54   2.0000      -0.403056       -10.9677
  55   2.0000      -0.395254       -10.7554
  56   2.0000      -0.380297       -10.3484
  57   2.0000      -0.375404       -10.2153
  58   2.0000      -0.361048        -9.8246
  59   2.0000      -0.358069        -9.7436
  60   2.0000      -0.348434        -9.4814
  61   2.0000      -0.336948        -9.1688
  62   2.0000      -0.327147        -8.9021
  63   2.0000      -0.318962        -8.6794
  64   2.0000      -0.313247        -8.5239
  65   2.0000      -0.306962        -8.3529
  66   2.0000      -0.306783        -8.3480
  67   2.0000      -0.302324        -8.2267
  68   0.0000       0.032435         0.8826
  69   0.0000       0.056113         1.5269
  70   0.0000       0.056850         1.5470
  71   0.0000       0.057819         1.5733
  72   0.0000       0.066544         1.8108

MULLIKEN ATOMIC CHARGES
-----------------------
   0 O :   -1.646968
   1 Ti:    4.216653
   2 Ti:    4.216740
   3 O :   -2.004138
   4 O :   -2.299696
   5 O :   -2.299696
   6 O :   -2.299693
   7 O :   -2.299700
   8 O :   -1.750342
   9 O :   -1.750317
  10 O :   -2.041394
  11 O :   -2.041449
  12 Q :    4.000000
  13 Q :    4.000000
  14 Q :    4.000000
  15 Q :    4.000000
  16 Q :    4.000000
  17 Q :    4.000000
  18 Q :    4.000000
  19 Q :    4.000000
  20 Q :    4.000000
  21 Q :    4.000000
  22 Q :    4.000000
  23 Q :    4.000000
  24 Q :    4.000000
  25 Q :    4.000000
  26 Q :    4.000000
  27 Q :    4.000000
  28 Q :    4.000000
  29 Q :    4.000000
  30 Q :    4.000000
  31 Q :    4.000000
  32 Q :    4.000000
  33 Q :    4.000000
  34 Q :    4.000000
  35 Q :    4.000000
  36 Q :    4.000000
  37 Q :    4.000000
  38 Q :    4.000000
  39 Q :    4.000000
  40 Q :    4.000000
  41 Q :    4.000000
  42 Q :    4.000000
  43 Q :    4.000000
  44 Q :    4.000000
  45 Q :    4.000000
  46 Q :    4.000000
  47 Q :    4.000000
  48 Q :    4.000000
  49 Q :    4.000000
  50 Q :    4.000000
  51 Q :    4.000000
  52 Q :    4.000000
  53 Q :    4.000000
  54 Q :    4.000000
  55 Q :    4.000000
  56 Q :    4.000000
  57 Q :    4.000000
  58 Q :    4.000000
  59 Q :    4.000000
  60 Q :    4.000000
  61 Q :    4.000000
  62 Q :    4.000000
  63 Q :    4.000000
  64 Q :    4.000000
  65 Q :    4.000000
  66 Q :    4.000000
  67 Q :    4.000000
  68 Q :    4.000000
  69 Q :    4.000000
  70 Q :    4.000000
  71 Q :    4.000000
  72 Q :    4.000000
  73 Q :    4.000000
  74 Q :    4.000000
  75 Q :    4.000000
  76 Q :    4.000000
  77 Q :    4.000000
  78 Q :    4.000000
Sum of atomic charges:  256.0000000

LOEWDIN ATOMIC CHARGES
----------------------
   0 O :   -0.374452
   1 Ti:   -0.190407
   2 Ti:   -0.190404
   3 O :   -1.010794
   4 O :   -1.404283
   5 O :   -1.404277
   6 O :   -1.404277
   7 O :   -1.404284
   8 O :   -0.879866
   9 O :   -0.879863
  10 O :   -1.428543
  11 O :   -1.428549
  12 Q :    4.000000
  13 Q :    4.000000
  14 Q :    4.000000
  15 Q :    4.000000
  16 Q :    4.000000
  17 Q :    4.000000
  18 Q :    4.000000
  19 Q :    4.000000
  20 Q :    4.000000
  21 Q :    4.000000
  22 Q :    4.000000
  23 Q :    4.000000
  24 Q :    4.000000
  25 Q :    4.000000
  26 Q :    4.000000
  27 Q :    4.000000
  28 Q :    4.000000
  29 Q :    4.000000
  30 Q :    4.000000
  31 Q :    4.000000
  32 Q :    4.000000
  33 Q :    4.000000
  34 Q :    4.000000
  35 Q :    4.000000
  36 Q :    4.000000
  37 Q :    4.000000
  38 Q :    4.000000
  39 Q :    4.000000
  40 Q :    4.000000
  41 Q :    4.000000
  42 Q :    4.000000
  43 Q :    4.000000
  44 Q :    4.000000
  45 Q :    4.000000
  46 Q :    4.000000
  47 Q :    4.000000
  48 Q :    4.000000
  49 Q :    4.000000
  50 Q :    4.000000
  51 Q :    4.000000
  52 Q :    4.000000
  53 Q :    4.000000
  54 Q :    4.000000
  55 Q :    4.000000
  56 Q :    4.000000
  57 Q :    4.000000
  58 Q :    4.000000
  59 Q :    4.000000
  60 Q :    4.000000
  61 Q :    4.000000
  62 Q :    4.000000
  63 Q :    4.000000
  64 Q :    4.000000
  65 Q :    4.000000
  66 Q :    4.000000
  67 Q :    4.000000
  68 Q :    4.000000
  69 Q :    4.000000
  70 Q :    4.000000
  71 Q :    4.000000
  72 Q :    4.000000
  73 Q :    4.000000
  74 Q :    4.000000
  75 Q :    4.000000
  76 Q :    4.000000
  77 Q :    4.000000
  78 Q :    4.000000

  Mayer bond orders larger than 0.100000
B(  0-O ,  1-Ti) :   0.5272 B(  0-O ,  2-Ti) :   0.5271 B(  0-O ,  4-O ) :   0.1279
B(  0-O ,  5-O ) :   0.1279 B(  0-O ,  6-O ) :   0.1279 B(  0-O ,  7-O ) :   0.1279
B(  0-O ,  8-O ) :   0.2924 B(  0-O ,  9-O ) :   0.2924 B(  1-Ti,  3-O ) :  -0.1293
B(  1-Ti,  4-O ) :  -0.9578 B(  1-Ti,  5-O ) :  -0.9578 B(  1-Ti, 10-O ) :  -0.2714
B(  2-Ti,  3-O ) :  -0.1294 B(  2-Ti,  6-O ) :  -0.9578 B(  2-Ti,  7-O ) :  -0.9578
B(  2-Ti, 11-O ) :  -0.2712 B(  3-O ,  4-O ) :   0.1175 B(  3-O ,  5-O ) :   0.1175
B(  3-O ,  6-O ) :   0.1175 B(  3-O ,  7-O ) :   0.1175 B(  3-O , 10-O ) :   0.2160
B(  3-O , 11-O ) :   0.2160 B(  4-O ,  7-O ) :   0.3207 B(  4-O ,  8-O ) :   0.3714
B(  4-O , 10-O ) :   0.2092 B(  5-O ,  6-O ) :   0.3207 B(  5-O ,  8-O ) :   0.3714
B(  5-O , 10-O ) :   0.2092 B(  6-O ,  9-O ) :   0.3714 B(  6-O , 11-O ) :   0.2092
B(  7-O ,  9-O ) :   0.3714 B(  7-O , 11-O ) :   0.2092 B(  8-O , 10-O ) :   0.3008
B(  9-O , 11-O ) :   0.3008

MP2 TOTAL ENERGY:    -5092.242274947 Eh
FINAL SINGLE POINT ENERGY     -5092.242274946976

DIPOLE MOMENT
-------------
                                X             Y             Z
Electronic contribution:      0.00012       0.00001       8.80667
Nuclear contribution   :     -0.01261       0.00011   -1455.33764
                        -----------------------------------------
Total Dipole Moment    :     -0.01249       0.00012   -1446.53097
                        -----------------------------------------
Magnitude (a.u.)       :   1446.53097
Magnitude (Debye)      :   3676.78954

Rotational constants in cm-1:     0.039839     0.015763     0.014329
Rotational constants in MHz :  1194.357760   472.561051   429.565796

                             ****ORCA TERMINATED NORMALLY****
TOTAL RUN TIME: 0 days 0 hours 7 minutes 51 seconds 872 msec
