                         Program Version 5.0.1 -  RELEASE  -
|  1> ! VeryTightSCF DLPNO-CCSD(T) NormalPNO RIJCOSX SlowConv DIIS NOTRAH
|  2> %maxcore 4000
|  3> %pal
|  4>   nprocs 4
|  5> end
|  6> %method
|  7>   Method HF
|  8>   RI on
|  9>   RunTyp Energy
| 10> end
| 11> %basis
| 12>   Basis "aug-cc-pVQZ"
| 13>   Aux "AutoAux"
| 14>   AuxC "AutoAux"
| 15> end
| 16> %scf
| 17>   HFTyp uhf
| 18>   Guess Hueckel
| 19>   AutoStart True
| 20>   SCFMode Direct
| 21>   MaxIter 1000
| 22>   sthresh 1e-6
| 23> end
| 24> %coords
| 25>   CTyp xyz
| 26>   Mult 3
| 27>   Units angs
| 28>   coords
| 29> O                      0.00000000000    0.00000000000    0.00000000000
| 30>   end
| 31> end
| 32>
| 33>                          ****END OF INPUT****

CARTESIAN COORDINATES (ANGSTROEM)
---------------------------------
  O      0.000000    0.000000    0.000000

 Total Charge           Charge          ....    0
 Multiplicity           Mult            ....    3
 Number of Electrons    NEL             ....    8
 Basis Dimension        Dim             ....   80

ORBITAL ENERGIES
----------------
                 SPIN UP ORBITALS
  NO   OCC          E(Eh)            E(eV)
   0   1.0000     -20.708589      -563.5094
   1   1.0000      -1.418674       -38.6041
   2   1.0000      -0.711081       -19.3495
   3   1.0000      -0.711081       -19.3495
   4   1.0000      -0.611668       -16.6443
   5   0.0000       0.132277         3.5994
   6   0.0000       0.132277         3.5994
   7   0.0000       0.136137         3.7045
   8   0.0000       0.140005         3.8097
   9   0.0000       0.460958        12.5433

                 SPIN DOWN ORBITALS
  NO   OCC          E(Eh)            E(eV)
   0   1.0000     -20.629883      -561.3677
   1   1.0000      -1.075945       -29.2780
   2   1.0000      -0.521728       -14.1969
   3   0.0000       0.062467         1.6998
   4   0.0000       0.062467         1.6998
   5   0.0000       0.143165         3.8957
   6   0.0000       0.146811         3.9949
   7   0.0000       0.197791         5.3822

MULLIKEN ATOMIC CHARGES AND SPIN POPULATIONS
--------------------------------------------
   0 O :    0.000000    2.000000
Sum of atomic charges         :    0.0000000

LOEWDIN ATOMIC CHARGES AND SPIN POPULATIONS
-------------------------------------------
   0 O :    0.000000    2.000000

E(0)                                       ...    -74.810967565
E(0)                                       ...    -74.810967565
E(CORR)(strong-pairs)                      ...     -0.179009726
E(CORR)(weak-pairs)                        ...     -0.001371554
E(CORR)(corrected)                         ...     -0.180381280
E(TOT)                                     ...    -74.991348844
E(CCSD(T))                                 ...    -74.995155743
FINAL SINGLE POINT ENERGY       -74.995155743109

DIPOLE MOMENT
-------------
                                X             Y             Z
Electronic contribution:     -0.00000       0.00000      -0.00000
Nuclear contribution   :      0.00000       0.00000       0.00000
                        -----------------------------------------
Total Dipole Moment    :     -0.00000       0.00000      -0.00000
                        -----------------------------------------
Magnitude (a.u.)       :      0.00000
Magnitude (Debye)      :      0.00000

Rotational constants in cm-1:     0.000000     0.000000     0.000000
Rotational constants in MHz :     0.000000     0.000000     0.000000

                             ****ORCA TERMINATED NORMALLY****
TOTAL RUN TIME: 0 days 0 hours 0 minutes 16 seconds 577 msec
