                         Program Version 5.0.1 -  RELEASE  -
|  1> ! VeryTightSCF DLPNO-CCSD(T) NormalPNO RIJCOSX SlowConv DIIS NOTRAH
|  2> %maxcore 4000
|  3> %pal
|  4>   nprocs 4
|  5> end
|  6> %method
|  7>   Method HF
|  8>   RI on
|  9>   RunTyp Energy
| 10> end
| 11> %basis
| 12>   Basis "aug-cc-pVTZ"
| 13>   Aux "AutoAux"
| 14>   AuxC "AutoAux"
| 15> end
| 16> %scf
| 17>   HFTyp uhf
| 18>   Guess Hueckel
| 19>   AutoStart True
| 20>   SCFMode Direct
| 21>   MaxIter 1000
| 22>   sthresh 1e-6
| 23> end
| 24> %coords
| 25>   CTyp xyz
| 26>   Mult 3
| 27>   Units angs
| 28>   coords
| 29> O                      0.00000000000    0.00000000000    0.00000000000
| 30>   end
| 31> end
| 32>
| 33>                          ****END OF INPUT****

CARTESIAN COORDINATES (ANGSTROEM)
---------------------------------
  O      0.000000    0.000000    0.000000

 Total Charge           Charge          ....    0
 Multiplicity           Mult            ....    3
 Number of Electrons    NEL             ....    8
 Basis Dimension        Dim             ....   46

ORBITAL ENERGIES
----------------
                 SPIN UP ORBITALS
  NO   OCC          E(Eh)            E(eV)
   0   1.0000     -20.710800      -563.5695
   1   1.0000      -1.419560       -38.6282
   2   1.0000      -0.710996       -19.3472
   3   1.0000      -0.710996       -19.3472
   4   1.0000      -0.611818       -16.6484
   5   0.0000       0.153148         4.1674
   6   0.0000       0.153148         4.1674
   7   0.0000       0.155503         4.2314
   8   0.0000       0.162730         4.4281
   9   0.0000       0.622784        16.9468

                 SPIN DOWN ORBITALS
  NO   OCC          E(Eh)            E(eV)
   0   1.0000     -20.632306      -561.4336
   1   1.0000      -1.077293       -29.3146
   2   1.0000      -0.521805       -14.1990
   3   0.0000       0.064867         1.7651
   4   0.0000       0.064867         1.7651
   5   0.0000       0.166974         4.5436
   6   0.0000       0.169320         4.6074
   7   0.0000       0.227039         6.1780

MULLIKEN ATOMIC CHARGES AND SPIN POPULATIONS
--------------------------------------------
   0 O :   -0.000000    2.000000
Sum of atomic charges         :   -0.0000000

LOEWDIN ATOMIC CHARGES AND SPIN POPULATIONS
-------------------------------------------
   0 O :   -0.000000    2.000000

E(0)                                       ...    -74.806416259
E(0)                                       ...    -74.806416259
E(CORR)(strong-pairs)                      ...     -0.167287193
E(CORR)(weak-pairs)                        ...     -0.001742510
E(CORR)(corrected)                         ...     -0.169029703
E(TOT)                                     ...    -74.975445962
E(CCSD(T))                                 ...    -74.978795733
FINAL SINGLE POINT ENERGY       -74.978795732661

DIPOLE MOMENT
-------------
                                X             Y             Z
Electronic contribution:      0.00000       0.00000       0.00000
Nuclear contribution   :      0.00000       0.00000       0.00000
                        -----------------------------------------
Total Dipole Moment    :      0.00000       0.00000       0.00000
                        -----------------------------------------
Magnitude (a.u.)       :      0.00000
Magnitude (Debye)      :      0.00000

Rotational constants in cm-1:     0.000000     0.000000     0.000000
Rotational constants in MHz :     0.000000     0.000000     0.000000

                             ****ORCA TERMINATED NORMALLY****
TOTAL RUN TIME: 0 days 0 hours 0 minutes 4 seconds 860 msec
