                         Program Version 5.0.1 -  RELEASE  -
|  1> ! VeryTightSCF DLPNO-CCSD(T) NormalPNO RIJCOSX SlowConv DIIS
|  2> %maxcore 72000
|  3> %pal
|  4> nprocs 16
|  5> end
|  6> %pointcharges "orca.bq"
|  7> %method
|  8> Method hf
|  9> RI on
| 10> RunTyp Energy
| 11> NewNCore Ti 10 end
| 12> NewNCore O 2 end
| 13> end
| 14> %basis
| 15> NewGTO O
| 16> "aug-cc-pVTZ"
| 17> end
| 18> NewGTO Ti
| 19> "cc-pwCVTZ"
| 20> end
| 21> Aux "def2/J"
| 22> AuxC "AutoAux"
| 23> end
| 24> %scf
| 25> HFTyp rhf
| 26> Guess Hueckel
| 27> AutoStart True
| 28> SCFMode Direct
| 29> MaxIter 1000
| 30> sthresh 1e-6
| 31> AutoTRAHIter 100
| 32> end
| 33> %mdci
| 34>     StorageType Shared
| 35> end
| 36> %coords
| 37> CTyp xyz
| 38> Mult 1
| 39> Units angs
| 40>   Charge -12
| 41>   coords
| 42> O:                      0.00000000000    0.00000000000    0.00000000000
| 43> Ti                      0.00000536997    1.48055149700   -1.06892606631
| 44> Ti                      0.00000552101   -1.48055312386   -1.06892138720
| 45> O                       0.00000442396   -0.00000111986   -2.54840301833
| 46> O                      -2.03525914147    1.48054518365   -1.11149385695
| 47> O                       2.03526534753    1.48054527935   -1.11149163807
| 48> O                       2.03526471018   -1.48054700097   -1.11149295951
| 49> O                      -2.03525907462   -1.48054722666   -1.11149503385
| 50> O                      -0.00000037752    2.96109155033   -0.00000271770
| 51> O                      -0.00000037752   -2.96109552160   -0.00000271770
| 52> O                       0.00000449994    2.96109199200   -2.54840438198
| 53> O                       0.00000449994   -2.96109507993   -2.54840438198
| 54> Ti>    4.00000000000    3.25402319191   -0.00000112036   -1.42716202606
| 55> NewECP
| 56> N_core 0
| 57>   lmax f
| 58>   s 2
| 59>    1      0.860000       9.191690  2
| 60>    2      0.172000       0.008301  2
| 61>   p 2
| 62>    1      0.860000      17.997720  2
| 63>    2      0.172000      -0.032600  2
| 64>   d 2
| 65>    1      1.600000      -9.504310  2
| 66>    2      0.320000      -0.151370  2
| 67>   f 1
| 68>    1      1.000000000    0.000000000 2
| 69> end
| 70> Ti>    4.00000000000   -3.25401610555   -0.00000112036   -1.42716202606
| 71> NewECP
| 72> N_core 0
| 73>   lmax f
| 74>   s 2
| 75>    1      0.860000       9.191690  2
| 76>    2      0.172000       0.008301  2
| 77>   p 2
| 78>    1      0.860000      17.997720  2
| 79>    2      0.172000      -0.032600  2
| 80>   d 2
| 81>    1      1.600000      -9.504310  2
| 82>    2      0.320000      -0.151370  2
| 83>   f 1
| 84>    1      1.000000000    0.000000000 2
| 85> end
| 86> Ti>    4.00000000000   -0.00005220374   -0.00000071014   -4.41288396045
| 87> NewECP
| 88> N_core 0
| 89>   lmax f
| 90>   s 2
| 91>    1      0.860000       9.191690  2
| 92>    2      0.172000       0.008301  2
| 93>   p 2
| 94>    1      0.860000      17.997720  2
| 95>    2      0.172000      -0.032600  2
| 96>   d 2
| 97>    1      1.600000      -9.504310  2
| 98>    2      0.320000      -0.151370  2
| 99>   f 1
|100>    1      1.000000000    0.000000000 2
|101> end
|102> Ti>    4.00000000000    0.00000552101    4.44163394806   -1.06892138720
|103> NewECP
|104> N_core 0
|105>   lmax f
|106>   s 2
|107>    1      0.860000       9.191690  2
|108>    2      0.172000       0.008301  2
|109>   p 2
|110>    1      0.860000      17.997720  2
|111>    2      0.172000      -0.032600  2
|112>   d 2
|113>    1      1.600000      -9.504310  2
|114>    2      0.320000      -0.151370  2
|115>   f 1
|116>    1      1.000000000    0.000000000 2
|117> end
|118> Ti>    4.00000000000    0.00000536997   -4.44163557493   -1.06892606631
|119> NewECP
|120> N_core 0
|121>   lmax f
|122>   s 2
|123>    1      0.860000       9.191690  2
|124>    2      0.172000       0.008301  2
|125>   p 2
|126>    1      0.860000      17.997720  2
|127>    2      0.172000      -0.032600  2
|128>   d 2
|129>    1      1.600000      -9.504310  2
|130>    2      0.320000      -0.151370  2
|131>   f 1
|132>    1      1.000000000    0.000000000 2
|133> end
|134> Ti>    4.00000000000   -3.25401668289    2.96109302555   -1.42716235830
|135> NewECP
|136> N_core 0
|137>   lmax f
|138>   s 2
|139>    1      0.860000       9.191690  2
|140>    2      0.172000       0.008301  2
|141>   p 2
|142>    1      0.860000      17.997720  2
|143>    2      0.172000      -0.032600  2
|144>   d 2
|145>    1      1.600000      -9.504310  2
|146>    2      0.320000      -0.151370  2
|147>   f 1
|148>    1      1.000000000    0.000000000 2
|149> end
|150> Ti>    4.00000000000    3.25402261457    2.96109302555   -1.42716235830
|151> NewECP
|152> N_core 0
|153>   lmax f
|154>   s 2
|155>    1      0.860000       9.191690  2
|156>    2      0.172000       0.008301  2
|157>   p 2
|158>    1      0.860000      17.997720  2
|159>    2      0.172000      -0.032600  2
|160>   d 2
|161>    1      1.600000      -9.504310  2
|162>    2      0.320000      -0.151370  2
|163>   f 1
|164>    1      1.000000000    0.000000000 2
|165> end
|166> Ti>    4.00000000000    3.25402261457   -2.96109404638   -1.42716235830
|167> NewECP
|168> N_core 0
|169>   lmax f
|170>   s 2
|171>    1      0.860000       9.191690  2
|172>    2      0.172000       0.008301  2
|173>   p 2
|174>    1      0.860000      17.997720  2
|175>    2      0.172000      -0.032600  2
|176>   d 2
|177>    1      1.600000      -9.504310  2
|178>    2      0.320000      -0.151370  2
|179>   f 1
|180>    1      1.000000000    0.000000000 2
|181> end
|182> Ti>    4.00000000000   -3.25401668289   -2.96109404638   -1.42716235830
|183> NewECP
|184> N_core 0
|185>   lmax f
|186>   s 2
|187>    1      0.860000       9.191690  2
|188>    2      0.172000       0.008301  2
|189>   p 2
|190>    1      0.860000      17.997720  2
|191>    2      0.172000      -0.032600  2
|192>   d 2
|193>    1      1.600000      -9.504310  2
|194>    2      0.320000      -0.151370  2
|195>   f 1
|196>    1      1.000000000    0.000000000 2
|197> end
|198> Ti>    4.00000000000   -0.00005206359    2.96109301637   -4.41288206312
|199> NewECP
|200> N_core 0
|201>   lmax f
|202>   s 2
|203>    1      0.860000       9.191690  2
|204>    2      0.172000       0.008301  2
|205>   p 2
|206>    1      0.860000      17.997720  2
|207>    2      0.172000      -0.032600  2
|208>   d 2
|209>    1      1.600000      -9.504310  2
|210>    2      0.320000      -0.151370  2
|211>   f 1
|212>    1      1.000000000    0.000000000 2
|213> end
|214> Ti>    4.00000000000   -0.00005206359   -2.96109405556   -4.41288206312
|215> NewECP
|216> N_core 0
|217>   lmax f
|218>   s 2
|219>    1      0.860000       9.191690  2
|220>    2      0.172000       0.008301  2
|221>   p 2
|222>    1      0.860000      17.997720  2
|223>    2      0.172000      -0.032600  2
|224>   d 2
|225>    1      1.600000      -9.504310  2
|226>    2      0.320000      -0.151370  2
|227>   f 1
|228>    1      1.000000000    0.000000000 2
|229> end
|230> Ti>    4.00000000000    3.25395215162    1.48054533538   -4.59991327640
|231> NewECP
|232> N_core 0
|233>   lmax f
|234>   s 2
|235>    1      0.860000       9.191690  2
|236>    2      0.172000       0.008301  2
|237>   p 2
|238>    1      0.860000      17.997720  2
|239>    2      0.172000      -0.032600  2
|240>   d 2
|241>    1      1.600000      -9.504310  2
|242>    2      0.320000      -0.151370  2
|243>   f 1
|244>    1      1.000000000    0.000000000 2
|245> end
|246> Ti>    4.00000000000    3.25395195581   -1.48054722422   -4.59991284715
|247> NewECP
|248> N_core 0
|249>   lmax f
|250>   s 2
|251>    1      0.860000       9.191690  2
|252>    2      0.172000       0.008301  2
|253>   p 2
|254>    1      0.860000      17.997720  2
|255>    2      0.172000      -0.032600  2
|256>   d 2
|257>    1      1.600000      -9.504310  2
|258>    2      0.320000      -0.151370  2
|259>   f 1
|260>    1      1.000000000    0.000000000 2
|261> end
|262> Ti>    4.00000000000   -3.25408714585    1.48054533538   -4.59991327640
|263> NewECP
|264> N_core 0
|265>   lmax f
|266>   s 2
|267>    1      0.860000       9.191690  2
|268>    2      0.172000       0.008301  2
|269>   p 2
|270>    1      0.860000      17.997720  2
|271>    2      0.172000      -0.032600  2
|272>   d 2
|273>    1      1.600000      -9.504310  2
|274>    2      0.320000      -0.151370  2
|275>   f 1
|276>    1      1.000000000    0.000000000 2
|277> end
|278> Ti>    4.00000000000   -3.25408734165   -1.48054722422   -4.59991284715
|279> NewECP
|280> N_core 0
|281>   lmax f
|282>   s 2
|283>    1      0.860000       9.191690  2
|284>    2      0.172000       0.008301  2
|285>   p 2
|286>    1      0.860000      17.997720  2
|287>    2      0.172000      -0.032600  2
|288>   d 2
|289>    1      1.600000      -9.504310  2
|290>    2      0.320000      -0.151370  2
|291>   f 1
|292>    1      1.000000000    0.000000000 2
|293> end
|294> Ti>    4.00000000000   -6.50803392749    1.48055149700   -1.06892606631
|295> NewECP
|296> N_core 0
|297>   lmax f
|298>   s 2
|299>    1      0.860000       9.191690  2
|300>    2      0.172000       0.008301  2
|301>   p 2
|302>    1      0.860000      17.997720  2
|303>    2      0.172000      -0.032600  2
|304>   d 2
|305>    1      1.600000      -9.504310  2
|306>    2      0.320000      -0.151370  2
|307>   f 1
|308>    1      1.000000000    0.000000000 2
|309> end
|310> Ti>    4.00000000000    6.50804466744    1.48055149700   -1.06892606631
|311> NewECP
|312> N_core 0
|313>   lmax f
|314>   s 2
|315>    1      0.860000       9.191690  2
|316>    2      0.172000       0.008301  2
|317>   p 2
|318>    1      0.860000      17.997720  2
|319>    2      0.172000      -0.032600  2
|320>   d 2
|321>    1      1.600000      -9.504310  2
|322>    2      0.320000      -0.151370  2
|323>   f 1
|324>    1      1.000000000    0.000000000 2
|325> end
|326> Ti>    4.00000000000    6.50804481848   -1.48055312386   -1.06892138720
|327> NewECP
|328> N_core 0
|329>   lmax f
|330>   s 2
|331>    1      0.860000       9.191690  2
|332>    2      0.172000       0.008301  2
|333>   p 2
|334>    1      0.860000      17.997720  2
|335>    2      0.172000      -0.032600  2
|336>   d 2
|337>    1      1.600000      -9.504310  2
|338>    2      0.320000      -0.151370  2
|339>   f 1
|340>    1      1.000000000    0.000000000 2
|341> end
|342> Ti>    4.00000000000   -6.50803377645   -1.48055312386   -1.06892138720
|343> NewECP
|344> N_core 0
|345>   lmax f
|346>   s 2
|347>    1      0.860000       9.191690  2
|348>    2      0.172000       0.008301  2
|349>   p 2
|350>    1      0.860000      17.997720  2
|351>    2      0.172000      -0.032600  2
|352>   d 2
|353>    1      1.600000      -9.504310  2
|354>    2      0.320000      -0.151370  2
|355>   f 1
|356>    1      1.000000000    0.000000000 2
|357> end
|358> Ti>    4.00000000000   -3.25401610555    5.92218595157   -1.42716202606
|359> NewECP
|360> N_core 0
|361>   lmax f
|362>   s 2
|363>    1      0.860000       9.191690  2
|364>    2      0.172000       0.008301  2
|365>   p 2
|366>    1      0.860000      17.997720  2
|367>    2      0.172000      -0.032600  2
|368>   d 2
|369>    1      1.600000      -9.504310  2
|370>    2      0.320000      -0.151370  2
|371>   f 1
|372>    1      1.000000000    0.000000000 2
|373> end
|374> Ti>    4.00000000000    3.25402319191    5.92218595157   -1.42716202606
|375> NewECP
|376> N_core 0
|377>   lmax f
|378>   s 2
|379>    1      0.860000       9.191690  2
|380>    2      0.172000       0.008301  2
|381>   p 2
|382>    1      0.860000      17.997720  2
|383>    2      0.172000      -0.032600  2
|384>   d 2
|385>    1      1.600000      -9.504310  2
|386>    2      0.320000      -0.151370  2
|387>   f 1
|388>    1      1.000000000    0.000000000 2
|389> end
|390> Ti>    4.00000000000    3.25402319191   -5.92218819228   -1.42716202606
|391> NewECP
|392> N_core 0
|393>   lmax f
|394>   s 2
|395>    1      0.860000       9.191690  2
|396>    2      0.172000       0.008301  2
|397>   p 2
|398>    1      0.860000      17.997720  2
|399>    2      0.172000      -0.032600  2
|400>   d 2
|728> N_core 0
|729>   lmax f
|730>   s 2
|731>    1      0.860000       9.191690  2
|732>    2      0.172000       0.008301  2
|733>   p 2
|734>    1      0.860000      17.997720  2
|735>    2      0.172000      -0.032600  2
|736>   d 2
|737>    1      1.600000      -9.504310  2
|738>    2      0.320000      -0.151370  2
|739>   f 1
|740>    1      1.000000000    0.000000000 2
|741> end
|742> Ti>    4.00000000000    3.25401657974   -0.00000100232   -7.78540932970
|743> NewECP
|744> N_core 0
|745>   lmax f
|746>   s 2
|747>    1      0.860000       9.191690  2
|748>    2      0.172000       0.008301  2
|749>   p 2
|750>    1      0.860000      17.997720  2
|751>    2      0.172000      -0.032600  2
|752>   d 2
|753>    1      1.600000      -9.504310  2
|754>    2      0.320000      -0.151370  2
|755>   f 1
|756>    1      1.000000000    0.000000000 2
|757> end
|758> Ti>    4.00000000000   -3.25402271772   -0.00000100232   -7.78540932970
|759> NewECP
|760> N_core 0
|761>   lmax f
|762>   s 2
|763>    1      0.860000       9.191690  2
|764>    2      0.172000       0.008301  2
|765>   p 2
|766>    1      0.860000      17.997720  2
|767>    2      0.172000      -0.032600  2
|768>   d 2
|769>    1      1.600000      -9.504310  2
|770>    2      0.320000      -0.151370  2
|771>   f 1
|772>    1      1.000000000    0.000000000 2
|773> end
|774> Ti>    4.00000000000   -3.25402271772    2.96109253364   -7.78540932970
|775> NewECP
|776> N_core 0
|777>   lmax f
|778>   s 2
|779>    1      0.860000       9.191690  2
|780>    2      0.172000       0.008301  2
|781>   p 2
|782>    1      0.860000      17.997720  2
|783>    2      0.172000      -0.032600  2
|784>   d 2
|785>    1      1.600000      -9.504310  2
|786>    2      0.320000      -0.151370  2
|787>   f 1
|788>    1      1.000000000    0.000000000 2
|789> end
|790> Ti>    4.00000000000    3.25401657974    2.96109253364   -7.78540932970
|791> NewECP
|792> N_core 0
|793>   lmax f
|794>   s 2
|795>    1      0.860000       9.191690  2
|796>    2      0.172000       0.008301  2
|797>   p 2
|798>    1      0.860000      17.997720  2
|799>    2      0.172000      -0.032600  2
|800>   d 2
|801>    1      1.600000      -9.504310  2
|802>    2      0.320000      -0.151370  2
|803>   f 1
|804>    1      1.000000000    0.000000000 2
|805> end
|806> Ti>    4.00000000000    3.25401657974   -2.96109453828   -7.78540932970
|807> NewECP
|808> N_core 0
|809>   lmax f
|810>   s 2
|811>    1      0.860000       9.191690  2
|812>    2      0.172000       0.008301  2
|813>   p 2
|814>    1      0.860000      17.997720  2
|815>    2      0.172000      -0.032600  2
|816>   d 2
|817>    1      1.600000      -9.504310  2
|818>    2      0.320000      -0.151370  2
|819>   f 1
|820>    1      1.000000000    0.000000000 2
|821> end
|822> Ti>    4.00000000000   -3.25402271772   -2.96109453828   -7.78540932970
|823> NewECP
|824> N_core 0
|825>   lmax f
|826>   s 2
|827>    1      0.860000       9.191690  2
|828>    2      0.172000       0.008301  2
|829>   p 2
|830>    1      0.860000      17.997720  2
|831>    2      0.172000      -0.032600  2
|832>   d 2
|833>    1      1.600000      -9.504310  2
|834>    2      0.320000      -0.151370  2
|835>   f 1
|836>    1      1.000000000    0.000000000 2
|837> end
|838> Ti>    4.00000000000   -0.00000306899    4.44163930162   -7.78540932970
|839> NewECP
|840> N_core 0
|841>   lmax f
|842>   s 2
|843>    1      0.860000       9.191690  2
|844>    2      0.172000       0.008301  2
|845>   p 2
|846>    1      0.860000      17.997720  2
|847>    2      0.172000      -0.032600  2
|848>   d 2
|849>    1      1.600000      -9.504310  2
|850>    2      0.320000      -0.151370  2
|851>   f 1
|852>    1      1.000000000    0.000000000 2
|853> end
|854> Ti>    4.00000000000   -0.00000306899   -4.44164130627   -7.78540932970
|855> NewECP
|856> N_core 0
|857>   lmax f
|858>   s 2
|859>    1      0.860000       9.191690  2
|860>    2      0.172000       0.008301  2
|861>   p 2
|862>    1      0.860000      17.997720  2
|863>    2      0.172000      -0.032600  2
|864>   d 2
|865>    1      1.600000      -9.504310  2
|866>    2      0.320000      -0.151370  2
|867>   f 1
|868>    1      1.000000000    0.000000000 2
|869> end
|870> Ti>    4.00000000000   -3.25408714585    7.40273240730   -4.59991327640
|871> NewECP
|872> N_core 0
|873>   lmax f
|874>   s 2
|875>    1      0.860000       9.191690  2
|876>    2      0.172000       0.008301  2
|877>   p 2
|878>    1      0.860000      17.997720  2
|879>    2      0.172000      -0.032600  2
|880>   d 2
|881>    1      1.600000      -9.504310  2
|882>    2      0.320000      -0.151370  2
|883>   f 1
|884>    1      1.000000000    0.000000000 2
|885> end
|886> Ti>    4.00000000000    3.25395215162    7.40273240730   -4.59991327640
|887> NewECP
|888> N_core 0
|889>   lmax f
|890>   s 2
|891>    1      0.860000       9.191690  2
|892>    2      0.172000       0.008301  2
|893>   p 2
|894>    1      0.860000      17.997720  2
|895>    2      0.172000      -0.032600  2
|896>   d 2
|897>    1      1.600000      -9.504310  2
|898>    2      0.320000      -0.151370  2
|899>   f 1
|900>    1      1.000000000    0.000000000 2
|901> end
|902> Ti>    4.00000000000    3.25395195581   -7.40273429615   -4.59991284715
|903> NewECP
|904> N_core 0
|905>   lmax f
|906>   s 2
|907>    1      0.860000       9.191690  2
|908>    2      0.172000       0.008301  2
|909>   p 2
|910>    1      0.860000      17.997720  2
|911>    2      0.172000      -0.032600  2
|912>   d 2
|913>    1      1.600000      -9.504310  2
|914>    2      0.320000      -0.151370  2
|915>   f 1
|916>    1      1.000000000    0.000000000 2
|917> end
|918> Ti>    4.00000000000   -3.25408734165   -7.40273429615   -4.59991284715
|919> NewECP
|920> N_core 0
|921>   lmax f
|922>   s 2
|923>    1      0.860000       9.191690  2
|924>    2      0.172000       0.008301  2
|925>   p 2
|926>    1      0.860000      17.997720  2
|927>    2      0.172000      -0.032600  2
|928>   d 2
|929>    1      1.600000      -9.504310  2
|930>    2      0.320000      -0.151370  2
|931>   f 1
|932>    1      1.000000000    0.000000000 2
|933> end
|934> Ti>    4.00000000000   -3.25401668289    8.88328009748   -1.42716235830
|935> NewECP
|936> N_core 0
|937>   lmax f
|938>   s 2
|939>    1      0.860000       9.191690  2
|940>    2      0.172000       0.008301  2
|941>   p 2
|942>    1      0.860000      17.997720  2
|943>    2      0.172000      -0.032600  2
|944>   d 2
|945>    1      1.600000      -9.504310  2
|946>    2      0.320000      -0.151370  2
|947>   f 1
|948>    1      1.000000000    0.000000000 2
|949> end
|950> Ti>    4.00000000000    3.25402261457    8.88328009748   -1.42716235830
|951> NewECP
|952> N_core 0
|953>   lmax f
|954>   s 2
|955>    1      0.860000       9.191690  2
|956>    2      0.172000       0.008301  2
|957>   p 2
|958>    1      0.860000      17.997720  2
|959>    2      0.172000      -0.032600  2
|960>   d 2
|961>    1      1.600000      -9.504310  2
|962>    2      0.320000      -0.151370  2
|963>   f 1
|964>    1      1.000000000    0.000000000 2
|965> end
|966> Ti>    4.00000000000    3.25402261457   -8.88328111830   -1.42716235830
|967> NewECP
|968> N_core 0
|969>   lmax f
|970>   s 2
|971>    1      0.860000       9.191690  2
|972>    2      0.172000       0.008301  2
|973>   p 2
|974>    1      0.860000      17.997720  2
|975>    2      0.172000      -0.032600  2
|976>   d 2
|977>    1      1.600000      -9.504310  2
|978>    2      0.320000      -0.151370  2
|979>   f 1
|980>    1      1.000000000    0.000000000 2
|981> end
|982> Ti>    4.00000000000   -3.25401668289   -8.88328111830   -1.42716235830
|983> NewECP
|984> N_core 0
|985>   lmax f
|986>   s 2
|987>    1      0.860000       9.191690  2
|988>    2      0.172000       0.008301  2
|989>   p 2
|990>    1      0.860000      17.997720  2
|991>    2      0.172000      -0.032600  2
|992>   d 2
|993>    1      1.600000      -9.504310  2
|994>    2      0.320000      -0.151370  2
|995>   f 1
|996>    1      1.000000000    0.000000000 2
|997> end
|998> Ti>    4.00000000000   -0.00005206359    8.88328008829   -4.41288206312
|999> NewECP
|1000> N_core 0
|1001>   lmax f
|1002>   s 2
|1003>    1      0.860000       9.191690  2
|1004>    2      0.172000       0.008301  2
|1005>   p 2
|1006>    1      0.860000      17.997720  2
|1007>    2      0.172000      -0.032600  2
|1008>   d 2
|1009>    1      1.600000      -9.504310  2
|1010>    2      0.320000      -0.151370  2
|1011>   f 1
|1012>    1      1.000000000    0.000000000 2
|1013> end
|1014> Ti>    4.00000000000   -0.00005206359   -8.88328112748   -4.41288206312
|1015> NewECP
|1016> N_core 0
|1017>   lmax f
|1018>   s 2
|1019>    1      0.860000       9.191690  2
|1020>    2      0.172000       0.008301  2
|1021>   p 2
|1022>    1      0.860000      17.997720  2
|1023>    2      0.172000      -0.032600  2
|1024>   d 2
|1025>    1      1.600000      -9.504310  2
|1026>    2      0.320000      -0.151370  2
|1027>   f 1
|1028>    1      1.000000000    0.000000000 2
|1029> end
|1030> Ti>    4.00000000000   -3.25402271772    5.92218606960   -7.78540932970
|1031> NewECP
|1032> N_core 0
|1033>   lmax f
|1034>   s 2
|1035>    1      0.860000       9.191690  2
|1036>    2      0.172000       0.008301  2
|1037>   p 2
|1038>    1      0.860000      17.997720  2
|1039>    2      0.172000      -0.032600  2
|1040>   d 2
|1041>    1      1.600000      -9.504310  2
|1042>    2      0.320000      -0.151370  2
|1043>   f 1
|1044>    1      1.000000000    0.000000000 2
|1045> end
|1046> Ti>    4.00000000000    3.25401657974    5.92218606960   -7.78540932970
|1047> NewECP
|1048> N_core 0
|1049>   lmax f
|1050>   s 2
|1051>    1      0.860000       9.191690  2
|1052>    2      0.172000       0.008301  2
|1053>   p 2
|1054>    1      0.860000      17.997720  2
|1055>    2      0.172000      -0.032600  2
|1056>   d 2
|1057>    1      1.600000      -9.504310  2
|1058>    2      0.320000      -0.151370  2
|1059>   f 1
|1060>    1      1.000000000    0.000000000 2
|1061> end
|1062> Ti>    4.00000000000    3.25401657974   -5.92218807425   -7.78540932970
|1063> NewECP
|1064> N_core 0
|1065>   lmax f
|1066>   s 2
|1067>    1      0.860000       9.191690  2
|1068>    2      0.172000       0.008301  2
|1069>   p 2
|1070>    1      0.860000      17.997720  2
|1071>    2      0.172000      -0.032600  2
|1072>   d 2
|1073>    1      1.600000      -9.504310  2
|1074>    2      0.320000      -0.151370  2
|1075>   f 1
|1076>    1      1.000000000    0.000000000 2
|1077> end
|1078> Ti>    4.00000000000   -3.25402271772   -5.92218807425   -7.78540932970
|1079> NewECP
|1080> N_core 0
|1081>   lmax f
|1082>   s 2
|1083>    1      0.860000       9.191690  2
|1084>    2      0.172000       0.008301  2
|1085>   p 2
|1086>    1      0.860000      17.997720  2
|1087>    2      0.172000      -0.032600  2
|1088>   d 2
|1089>    1      1.600000      -9.504310  2
|1090>    2      0.320000      -0.151370  2
|1091>   f 1
|1092>    1      1.000000000    0.000000000 2
|1093> end
|1094> Ti>    4.00000000000   -0.00000306899    7.40273283758   -7.78540932970
|1095> NewECP
|1096> N_core 0
|1097>   lmax f
|1098>   s 2
|1099>    1      0.860000       9.191690  2
|1100>    2      0.172000       0.008301  2
|1101>   p 2
|1102>    1      0.860000      17.997720  2
|1103>    2      0.172000      -0.032600  2
|1104>   d 2
|1105>    1      1.600000      -9.504310  2
|1106>    2      0.320000      -0.151370  2
|1107>   f 1
|1108>    1      1.000000000    0.000000000 2
|1109> end
|1110> Ti>    4.00000000000   -0.00000306899   -7.40273484223   -7.78540932970
|1111> NewECP
|1112> N_core 0
|1113>   lmax f
|1114>   s 2
|1115>    1      0.860000       9.191690  2
|1116>    2      0.172000       0.008301  2
|1117>   p 2
|1118>    1      0.860000      17.997720  2
|1119>    2      0.172000      -0.032600  2
|1120>   d 2
|1121>    1      1.600000      -9.504310  2
|1122>    2      0.320000      -0.151370  2
|1123>   f 1
|1124>    1      1.000000000    0.000000000 2
|1125> end
|1126>   end
|1127> endd                         ****END OF INPUT****

CARTESIAN COORDINATES (ANGSTROEM)
---------------------------------
  O      0.000000    0.000000    0.000000
  Ti     0.000005    1.480551   -1.068926
  Ti     0.000006   -1.480553   -1.068921
  O      0.000004   -0.000001   -2.548403
  O     -2.035259    1.480545   -1.111494
  O      2.035265    1.480545   -1.111492
  O      2.035265   -1.480547   -1.111493
  O     -2.035259   -1.480547   -1.111495
  O     -0.000000    2.961092   -0.000003
  O     -0.000000   -2.961096   -0.000003
  O      0.000004    2.961092   -2.548404
  O      0.000004   -2.961095   -2.548404
  Ti>    3.254023   -0.000001   -1.427162
  Ti>   -3.254016   -0.000001   -1.427162
  Ti>   -0.000052   -0.000001   -4.412884
  Ti>    0.000006    4.441634   -1.068921
  Ti>    0.000005   -4.441636   -1.068926
  Ti>   -3.254017    2.961093   -1.427162
  Ti>    3.254023    2.961093   -1.427162
  Ti>    3.254023   -2.961094   -1.427162
  Ti>   -3.254017   -2.961094   -1.427162
  Ti>   -0.000052    2.961093   -4.412882
  Ti>   -0.000052   -2.961094   -4.412882
  Ti>    3.253952    1.480545   -4.599913
  Ti>    3.253952   -1.480547   -4.599913
  Ti>   -3.254087    1.480545   -4.599913
  Ti>   -3.254087   -1.480547   -4.599913
  Ti>   -6.508034    1.480551   -1.068926
  Ti>    6.508045    1.480551   -1.068926
  Ti>    6.508045   -1.480553   -1.068921
  Ti>   -6.508034   -1.480553   -1.068921
  Ti>   -3.254016    5.922186   -1.427162
  Ti>    3.254023    5.922186   -1.427162
  Ti>    3.254023   -5.922188   -1.427162
  Ti>   -3.254016   -5.922188   -1.427162
  Ti>    3.253952    4.441640   -4.599913
  Ti>    3.253952   -4.441642   -4.599913
  Ti>   -3.254087    4.441640   -4.599913
  Ti>   -3.254087   -4.441642   -4.599913
  Ti>   -0.000052    5.922186   -4.412884
  Ti>   -0.000052   -5.922188   -4.412884
  Ti>    0.000005    7.402739   -1.068926
  Ti>    0.000006   -7.402740   -1.068921
  Ti>    6.507987   -0.000001   -4.412884
  Ti>   -6.508092   -0.000001   -4.412884
  Ti>   -0.000003    1.480546   -7.785409
  Ti>   -0.000003   -1.480548   -7.785409
  Ti>   -6.508034    4.441634   -1.068921
  Ti>    6.508045    4.441634   -1.068921
  Ti>    6.508045   -4.441636   -1.068926
  Ti>   -6.508034   -4.441636   -1.068926
  Ti>    6.507987    2.961093   -4.412882
  Ti>    6.507987   -2.961094   -4.412882
  Ti>   -6.508091    2.961093   -4.412882
  Ti>   -6.508091   -2.961094   -4.412882
  Ti>    3.254017   -0.000001   -7.785409
  Ti>   -3.254023   -0.000001   -7.785409
  Ti>   -3.254023    2.961093   -7.785409
  Ti>    3.254017    2.961093   -7.785409
  Ti>    3.254017   -2.961095   -7.785409
  Ti>   -3.254023   -2.961095   -7.785409
  Ti>   -0.000003    4.441639   -7.785409
  Ti>   -0.000003   -4.441641   -7.785409
  Ti>   -3.254087    7.402732   -4.599913
  Ti>    3.253952    7.402732   -4.599913
  Ti>    3.253952   -7.402734   -4.599913
  Ti>   -3.254087   -7.402734   -4.599913
  Ti>   -3.254017    8.883280   -1.427162
  Ti>    3.254023    8.883280   -1.427162
  Ti>    3.254023   -8.883281   -1.427162
  Ti>   -3.254017   -8.883281   -1.427162
  Ti>   -0.000052    8.883280   -4.412882
  Ti>   -0.000052   -8.883281   -4.412882
  Ti>   -3.254023    5.922186   -7.785409
  Ti>    3.254017    5.922186   -7.785409
  Ti>    3.254017   -5.922188   -7.785409
  Ti>   -3.254023   -5.922188   -7.785409
  Ti>   -0.000003    7.402733   -7.785409
  Ti>   -0.000003   -7.402735   -7.785409

 Total Charge           Charge          ....  -12
 Multiplicity           Mult            ....    1
 Number of Electrons    NEL             ....  128
 Basis Dimension        Dim             ....  664

ORBITAL ENERGIES
----------------

  NO   OCC          E(Eh)            E(eV)
   0   2.0000    -183.332396     -4988.7281
   1   2.0000    -183.332396     -4988.7281
   2   2.0000     -21.544710      -586.2614
   3   2.0000     -21.544710      -586.2614
   4   2.0000     -20.487874      -557.5034
   5   2.0000     -20.487871      -557.5033
   6   2.0000     -20.487822      -557.5020
   7   2.0000     -20.487819      -557.5019
   8   2.0000     -20.466817      -556.9304
   9   2.0000     -20.466815      -556.9304
  10   2.0000     -20.452463      -556.5398
  11   2.0000     -20.392272      -554.9019
  12   2.0000     -20.392272      -554.9019
  13   2.0000     -17.915085      -487.4942
  14   2.0000     -17.915081      -487.4941
  15   2.0000     -17.912852      -487.4335
  16   2.0000     -17.912844      -487.4333
  17   2.0000     -17.910204      -487.3614
  18   2.0000     -17.910180      -487.3608
  19   2.0000      -2.943435       -80.0949
  20   2.0000      -2.942536       -80.0705
  21   2.0000      -1.863764       -50.7156
  22   2.0000      -1.862066       -50.6694
  23   2.0000      -1.861473       -50.6533
  24   2.0000      -1.858515       -50.5728
  25   2.0000      -1.855999       -50.5043
  26   2.0000      -1.850083       -50.3433
  27   2.0000      -1.278868       -34.7998
  28   2.0000      -1.272719       -34.6324
  29   2.0000      -1.268316       -34.5126
  30   2.0000      -1.262682       -34.3593
  31   2.0000      -1.240072       -33.7441
  32   2.0000      -1.239489       -33.7282
  33   2.0000      -1.206868       -32.8406
  34   2.0000      -1.143794       -31.1242
  35   2.0000      -1.142245       -31.0821
  36   2.0000      -0.598930       -16.2977
  37   2.0000      -0.593635       -16.1536
  38   2.0000      -0.583379       -15.8746
  39   2.0000      -0.580030       -15.7834
  40   2.0000      -0.569420       -15.4947
  41   2.0000      -0.564828       -15.3697
  42   2.0000      -0.562689       -15.3115
  43   2.0000      -0.562076       -15.2949
  44   2.0000      -0.540601       -14.7105
  45   2.0000      -0.536635       -14.6026
  46   2.0000      -0.535856       -14.5814
  47   2.0000      -0.533938       -14.5292
  48   2.0000      -0.528612       -14.3843
  49   2.0000      -0.524534       -14.2733
  50   2.0000      -0.522268       -14.2116
  51   2.0000      -0.505001       -13.7418
  52   2.0000      -0.500343       -13.6150
  53   2.0000      -0.481797       -13.1104
  54   2.0000      -0.473806       -12.8929
  55   2.0000      -0.469941       -12.7877
  56   2.0000      -0.439839       -11.9686
  57   2.0000      -0.436768       -11.8851
  58   2.0000      -0.425547       -11.5797
  59   2.0000      -0.398023       -10.8308
  60   2.0000      -0.396117       -10.7789
  61   2.0000      -0.387649       -10.5485
  62   2.0000      -0.386371       -10.5137
  63   2.0000      -0.196199        -5.3388
  64   0.0000       0.116896         3.1809
  65   0.0000       0.132130         3.5954
  66   0.0000       0.135076         3.6756
  67   0.0000       0.148820         4.0496
  68   0.0000       0.153059         4.1650

MULLIKEN ATOMIC CHARGES
-----------------------
   0 O :   -0.887938
   1 Ti:    3.963083
   2 Ti:    3.962948
   3 O :   -1.975617
   4 O :   -2.302183
   5 O :   -2.302173
   6 O :   -2.302171
   7 O :   -2.302186
   8 O :   -1.880267
   9 O :   -1.880261
  10 O :   -2.046575
  11 O :   -2.046661
  12 Q :    4.000000
  13 Q :    4.000000
  14 Q :    4.000000
  15 Q :    4.000000
  16 Q :    4.000000
  17 Q :    4.000000
  18 Q :    4.000000
  19 Q :    4.000000
  20 Q :    4.000000
  21 Q :    4.000000
  22 Q :    4.000000
  23 Q :    4.000000
  24 Q :    4.000000
  25 Q :    4.000000
  26 Q :    4.000000
  27 Q :    4.000000
  28 Q :    4.000000
  29 Q :    4.000000
  30 Q :    4.000000
  31 Q :    4.000000
  32 Q :    4.000000
  33 Q :    4.000000
  34 Q :    4.000000
  35 Q :    4.000000
  36 Q :    4.000000
  37 Q :    4.000000
  38 Q :    4.000000
  39 Q :    4.000000
  40 Q :    4.000000
  41 Q :    4.000000
  42 Q :    4.000000
  43 Q :    4.000000
  44 Q :    4.000000
  45 Q :    4.000000
  46 Q :    4.000000
  47 Q :    4.000000
  48 Q :    4.000000
  49 Q :    4.000000
  50 Q :    4.000000
  51 Q :    4.000000
  52 Q :    4.000000
  53 Q :    4.000000
  54 Q :    4.000000
  55 Q :    4.000000
  56 Q :    4.000000
  57 Q :    4.000000
  58 Q :    4.000000
  59 Q :    4.000000
  60 Q :    4.000000
  61 Q :    4.000000
  62 Q :    4.000000
  63 Q :    4.000000
  64 Q :    4.000000
  65 Q :    4.000000
  66 Q :    4.000000
  67 Q :    4.000000
  68 Q :    4.000000
  69 Q :    4.000000
  70 Q :    4.000000
  71 Q :    4.000000
  72 Q :    4.000000
  73 Q :    4.000000
  74 Q :    4.000000
  75 Q :    4.000000
  76 Q :    4.000000
  77 Q :    4.000000
  78 Q :    4.000000
Sum of atomic charges:  256.0000000

LOEWDIN ATOMIC CHARGES
----------------------
   0 O :   -1.118732
   1 Ti:    0.308980
   2 Ti:    0.308985
   3 O :   -1.056578
   4 O :   -1.409546
   5 O :   -1.409540
   6 O :   -1.409540
   7 O :   -1.409547
   8 O :   -0.955750
   9 O :   -0.955747
  10 O :   -1.446490
  11 O :   -1.446496
  12 Q :    4.000000
  13 Q :    4.000000
  14 Q :    4.000000
  15 Q :    4.000000
  16 Q :    4.000000
  17 Q :    4.000000
  18 Q :    4.000000
  19 Q :    4.000000
  20 Q :    4.000000
  21 Q :    4.000000
  22 Q :    4.000000
  23 Q :    4.000000
  24 Q :    4.000000
  25 Q :    4.000000
  26 Q :    4.000000
  27 Q :    4.000000
  28 Q :    4.000000
  29 Q :    4.000000
  30 Q :    4.000000
  31 Q :    4.000000
  32 Q :    4.000000
  33 Q :    4.000000
  34 Q :    4.000000
  35 Q :    4.000000
  36 Q :    4.000000
  37 Q :    4.000000
  38 Q :    4.000000
  39 Q :    4.000000
  40 Q :    4.000000
  41 Q :    4.000000
  42 Q :    4.000000
  43 Q :    4.000000
  44 Q :    4.000000
  45 Q :    4.000000
  46 Q :    4.000000
  47 Q :    4.000000
  48 Q :    4.000000
  49 Q :    4.000000
  50 Q :    4.000000
  51 Q :    4.000000
  52 Q :    4.000000
  53 Q :    4.000000
  54 Q :    4.000000
  55 Q :    4.000000
  56 Q :    4.000000
  57 Q :    4.000000
  58 Q :    4.000000
  59 Q :    4.000000
  60 Q :    4.000000
  61 Q :    4.000000
  62 Q :    4.000000
  63 Q :    4.000000
  64 Q :    4.000000
  65 Q :    4.000000
  66 Q :    4.000000
  67 Q :    4.000000
  68 Q :    4.000000
  69 Q :    4.000000
  70 Q :    4.000000
  71 Q :    4.000000
  72 Q :    4.000000
  73 Q :    4.000000
  74 Q :    4.000000
  75 Q :    4.000000
  76 Q :    4.000000
  77 Q :    4.000000
  78 Q :    4.000000

  Mayer bond orders larger than 0.100000
B(  0-O ,  4-O ) :   0.1432 B(  0-O ,  5-O ) :   0.1432 B(  0-O ,  6-O ) :   0.1432
B(  0-O ,  7-O ) :   0.1432 B(  0-O ,  8-O ) :   0.4811 B(  0-O ,  9-O ) :   0.4811
B(  1-Ti,  4-O ) :  -1.0313 B(  1-Ti,  5-O ) :  -1.0313 B(  1-Ti,  8-O ) :  -0.5420
B(  1-Ti,  9-O ) :   0.3487 B(  1-Ti, 10-O ) :  -0.3595 B(  1-Ti, 11-O ) :   0.1081
B(  2-Ti,  6-O ) :  -1.0313 B(  2-Ti,  7-O ) :  -1.0314 B(  2-Ti,  8-O ) :   0.3489
B(  2-Ti,  9-O ) :  -0.5418 B(  2-Ti, 10-O ) :   0.1080 B(  2-Ti, 11-O ) :  -0.3596
B(  3-O , 10-O ) :   0.1914 B(  3-O , 11-O ) :   0.1913 B(  4-O ,  7-O ) :   0.2681
B(  4-O ,  8-O ) :   0.3309 B(  4-O , 10-O ) :   0.1913 B(  5-O ,  6-O ) :   0.2681
B(  5-O ,  8-O ) :   0.3310 B(  5-O , 10-O ) :   0.1913 B(  6-O ,  9-O ) :   0.3310
B(  6-O , 11-O ) :   0.1913 B(  7-O ,  9-O ) :   0.3310 B(  7-O , 11-O ) :   0.1913
B(  8-O , 10-O ) :   0.2509 B(  9-O , 11-O ) :   0.2508

E(0)                                       ...  -5011.923314165
E(0)                                       ...  -5011.923314165
E(CORR)(strong-pairs)                      ...     -3.290229150
E(CORR)(weak-pairs)                        ...     -0.022403410
E(CORR)(corrected)                         ...     -3.312632560
E(TOT)                                     ...  -5015.235946725
E(CCSD(T))                                 ...  -5015.387203429
FINAL SINGLE POINT ENERGY     -5015.387203429369

DIPOLE MOMENT
-------------
                                X             Y             Z
Electronic contribution:      0.00012       0.00000       7.87346
Nuclear contribution   :     -0.01273       0.00015   -1416.82440
                        -----------------------------------------
Total Dipole Moment    :     -0.01261       0.00015   -1408.95094
                        -----------------------------------------
Magnitude (a.u.)       :   1408.95094
Magnitude (Debye)      :   3581.26868

Rotational constants in cm-1:     0.042112     0.016107     0.014329
Rotational constants in MHz :  1262.475280   482.869400   429.565796

                             ****ORCA TERMINATED NORMALLY****
TOTAL RUN TIME: 0 days 1 hours 52 minutes 25 seconds 234 msec
