                         Program Version 5.0.2 -  RELEASE  -
|  1> ! VeryTightSCF DLPNO-MP2 NormalPNO RIJCOSX SlowConv DIIS NOTRAH
|  2> %maxcore 4000
|  3> %pal
|  4>   nprocs 4
|  5> end
|  6> %method
|  7>   Method HF
|  8>   RI on
|  9>   RunTyp Energy
| 10> end
| 11> %basis
| 12>   Basis "def2-QZVPP"
| 13>   Aux "def2/J"
| 14>   AuxC "def2-QZVPP/C"
| 15> end
| 16> %scf
| 17>   HFTyp uhf
| 18>   Guess Hueckel
| 19>   AutoStart True
| 20>   SCFMode Direct
| 21>   MaxIter 1000
| 22>   sthresh 1e-6
| 23> end
| 24> %coords
| 25>   CTyp xyz
| 26>   Mult 3
| 27>   Units angs
| 28>   coords
| 29> O                      0.00000000000    0.00000000000    0.00000000000
| 30>   end
| 31> end
| 32>
| 33>                          ****END OF INPUT****

CARTESIAN COORDINATES (ANGSTROEM)
---------------------------------
  O      0.000000    0.000000    0.000000

 Total Charge           Charge          ....    0
 Multiplicity           Mult            ....    3
 Number of Electrons    NEL             ....    8
 Basis Dimension        Dim             ....   57

ORBITAL ENERGIES
----------------
                 SPIN UP ORBITALS
  NO   OCC          E(Eh)            E(eV)
   0   1.0000     -20.706926      -563.4641
   1   1.0000      -1.417766       -38.5794
   2   1.0000      -0.710571       -19.3356
   3   1.0000      -0.710571       -19.3356
   4   1.0000      -0.611118       -16.6294
   5   0.0000       0.338415         9.2088
   6   0.0000       0.338415         9.2088
   7   0.0000       0.360205         9.8017
   8   0.0000       0.519217        14.1286
   9   0.0000       1.152795        31.3692

                 SPIN DOWN ORBITALS
  NO   OCC          E(Eh)            E(eV)
   0   1.0000     -20.628545      -561.3313
   1   1.0000      -1.075426       -29.2638
   2   1.0000      -0.521506       -14.1909
   3   0.0000       0.086801         2.3620
   4   0.0000       0.086801         2.3620
   5   0.0000       0.372592        10.1388
   6   0.0000       0.446479        12.1493
   7   0.0000       0.446479        12.1493

MULLIKEN ATOMIC CHARGES AND SPIN POPULATIONS
--------------------------------------------
   0 O :   -0.000000    2.000000
Sum of atomic charges         :   -0.0000000

LOEWDIN ATOMIC CHARGES AND SPIN POPULATIONS
-------------------------------------------
   0 O :   -0.000000    2.000000

MP2 TOTAL ENERGY:      -74.975189912 Eh
FINAL SINGLE POINT ENERGY       -74.975189911966

DIPOLE MOMENT
-------------
                                X             Y             Z
Electronic contribution:     -0.00000      -0.00000      -0.00000
Nuclear contribution   :      0.00000       0.00000       0.00000
                        -----------------------------------------
Total Dipole Moment    :     -0.00000      -0.00000      -0.00000
                        -----------------------------------------
Magnitude (a.u.)       :      0.00000
Magnitude (Debye)      :      0.00000

Rotational constants in cm-1:     0.000000     0.000000     0.000000
Rotational constants in MHz :     0.000000     0.000000     0.000000

                             ****ORCA TERMINATED NORMALLY****
TOTAL RUN TIME: 0 days 0 hours 0 minutes 1 seconds 637 msec
