                         Program Version 5.0.2 -  RELEASE  -
|  1> ! TightSCF SlowConv DIIS
|  2> %maxcore 5000
|  3> %pal
|  4>   nprocs 8
|  5> end
|  6> %pointcharges "orca.bq"
|  7> %method
|  8>   Method DFT
|  9>   Functional PBE
| 10>   RI on
| 11>   RunTyp Energy
| 12> end
| 13> %basis
| 14>   Basis "def2-TZVPP"
| 15>   Aux "def2/J"
| 16> end
| 17> %scf
| 18>   HFTyp rks
| 19>   Guess Hueckel
| 20>   AutoStart True
| 21>   SCFMode Direct
| 22>   MaxIter 1000
| 23>   sthresh 1e-6
| 24>   AutoTRAHIter 100
| 25> end
| 26> %coords
| 27>   CTyp xyz
| 28>   Mult 1
| 29>   Units angs
| 30>   Charge 0
| 31>   coords
| 32> O:                      0.00000000000    0.00000000000    0.00000000000
| 33> Ti                      0.00000000000    1.48054676798   -1.27209143018
| 34> Ti                      0.00000000000   -1.48054676798   -1.27209143018
| 35> Ti                      0.00000000000    0.00000000000    1.98192821856
| 36> O                      -1.27209143018    1.48054676798    1.98192821856
| 37> O                       1.27209143018    1.48054676798    1.98192821856
| 38> O                       1.27209143018   -1.48054676798    1.98192821856
| 39> O                      -1.27209143018   -1.48054676798    1.98192821856
| 40> O                      -0.00000000000    0.00000000000    3.96385643712
| 41> Ti>    4.00000000000   -3.25401964873    0.00000000000   -1.27209143018
| 42> NewECP
| 43> N_core 0
| 44>   lmax f
| 45>   s 2
| 46>    1      0.860000       9.191690  2
| 47>    2      0.172000       0.008301  2
| 48>   p 2
| 49>    1      0.860000      17.997720  2
| 50>    2      0.172000      -0.032600  2
| 51>   d 2
| 52>    1      1.600000      -9.504310  2
| 53>    2      0.320000      -0.151370  2
| 54>   f 1
| 55>    1      1.000000000    0.000000000 2
| 56> end
| 57> Ti>    4.00000000000    3.25401964873    0.00000000000   -1.27209143018
| 58> NewECP
| 59> N_core 0
| 60>   lmax f
| 61>   s 2
| 62>    1      0.860000       9.191690  2
| 63>    2      0.172000       0.008301  2
| 64>   p 2
| 65>    1      0.860000      17.997720  2
| 66>    2      0.172000      -0.032600  2
| 67>   d 2
| 68>    1      1.600000      -9.504310  2
| 69>    2      0.320000      -0.151370  2
| 70>   f 1
| 71>    1      1.000000000    0.000000000 2
| 72> end
| 73> Ti>    4.00000000000    0.00000000000    2.96109353596    1.98192821856
| 74> NewECP
| 75> N_core 0
| 76>   lmax f
| 77>   s 2
| 78>    1      0.860000       9.191690  2
| 79>    2      0.172000       0.008301  2
| 80>   p 2
| 81>    1      0.860000      17.997720  2
| 82>    2      0.172000      -0.032600  2
| 83>   d 2
| 84>    1      1.600000      -9.504310  2
| 85>    2      0.320000      -0.151370  2
| 86>   f 1
| 87>    1      1.000000000    0.000000000 2
| 88> end
| 89> Ti>    4.00000000000    0.00000000000   -2.96109353596    1.98192821856
| 90> NewECP
| 91> N_core 0
| 92>   lmax f
| 93>   s 2
| 94>    1      0.860000       9.191690  2
| 95>    2      0.172000       0.008301  2
| 96>   p 2
| 97>    1      0.860000      17.997720  2
| 98>    2      0.172000      -0.032600  2
| 99>   d 2
|100>    1      1.600000      -9.504310  2
|101>    2      0.320000      -0.151370  2
|102>   f 1
|103>    1      1.000000000    0.000000000 2
|104> end
|105> Ti>    4.00000000000   -3.25401964873    1.48054676798    1.98192821856
|106> NewECP
|107> N_core 0
|108>   lmax f
|109>   s 2
|110>    1      0.860000       9.191690  2
|111>    2      0.172000       0.008301  2
|112>   p 2
|113>    1      0.860000      17.997720  2
|114>    2      0.172000      -0.032600  2
|115>   d 2
|116>    1      1.600000      -9.504310  2
|117>    2      0.320000      -0.151370  2
|118>   f 1
|119>    1      1.000000000    0.000000000 2
|120> end
|121> Ti>    4.00000000000    3.25401964873    1.48054676798    1.98192821856
|122> NewECP
|123> N_core 0
|124>   lmax f
|125>   s 2
|126>    1      0.860000       9.191690  2
|127>    2      0.172000       0.008301  2
|128>   p 2
|129>    1      0.860000      17.997720  2
|130>    2      0.172000      -0.032600  2
|131>   d 2
|132>    1      1.600000      -9.504310  2
|133>    2      0.320000      -0.151370  2
|134>   f 1
|135>    1      1.000000000    0.000000000 2
|136> end
|137> Ti>    4.00000000000    3.25401964873   -1.48054676798    1.98192821856
|138> NewECP
|139> N_core 0
|140>   lmax f
|141>   s 2
|142>    1      0.860000       9.191690  2
|143>    2      0.172000       0.008301  2
|144>   p 2
|145>    1      0.860000      17.997720  2
|146>    2      0.172000      -0.032600  2
|147>   d 2
|148>    1      1.600000      -9.504310  2
|149>    2      0.320000      -0.151370  2
|150>   f 1
|151>    1      1.000000000    0.000000000 2
|152> end
|153> Ti>    4.00000000000   -3.25401964873   -1.48054676798    1.98192821856
|154> NewECP
|155> N_core 0
|156>   lmax f
|157>   s 2
|158>    1      0.860000       9.191690  2
|159>    2      0.172000       0.008301  2
|160>   p 2
|161>    1      0.860000      17.997720  2
|162>    2      0.172000      -0.032600  2
|163>   d 2
|164>    1      1.600000      -9.504310  2
|165>    2      0.320000      -0.151370  2
|166>   f 1
|167>    1      1.000000000    0.000000000 2
|168> end
|169> Ti>    4.00000000000    0.00000000000    0.00000000000   -4.52611107891
|170> NewECP
|171> N_core 0
|172>   lmax f
|173>   s 2
|174>    1      0.860000       9.191690  2
|175>    2      0.172000       0.008301  2
|176>   p 2
|177>    1      0.860000      17.997720  2
|178>    2      0.172000      -0.032600  2
|179>   d 2
|180>    1      1.600000      -9.504310  2
|181>    2      0.320000      -0.151370  2
|182>   f 1
|183>    1      1.000000000    0.000000000 2
|184> end
|185> Ti>    4.00000000000   -3.25401964873    2.96109353596   -1.27209143018
|186> NewECP
|187> N_core 0
|188>   lmax f
|189>   s 2
|190>    1      0.860000       9.191690  2
|191>    2      0.172000       0.008301  2
|192>   p 2
|193>    1      0.860000      17.997720  2
|194>    2      0.172000      -0.032600  2
|195>   d 2
|196>    1      1.600000      -9.504310  2
|197>    2      0.320000      -0.151370  2
|198>   f 1
|199>    1      1.000000000    0.000000000 2
|200> end
|201> Ti>    4.00000000000    3.25401964873    2.96109353596   -1.27209143018
|202> NewECP
|203> N_core 0
|204>   lmax f
|205>   s 2
|206>    1      0.860000       9.191690  2
|207>    2      0.172000       0.008301  2
|208>   p 2
|209>    1      0.860000      17.997720  2
|210>    2      0.172000      -0.032600  2
|211>   d 2
|212>    1      1.600000      -9.504310  2
|213>    2      0.320000      -0.151370  2
|214>   f 1
|215>    1      1.000000000    0.000000000 2
|216> end
|217> Ti>    4.00000000000    3.25401964873   -2.96109353596   -1.27209143018
|218> NewECP
|219> N_core 0
|220>   lmax f
|221>   s 2
|222>    1      0.860000       9.191690  2
|223>    2      0.172000       0.008301  2
|224>   p 2
|225>    1      0.860000      17.997720  2
|226>    2      0.172000      -0.032600  2
|227>   d 2
|228>    1      1.600000      -9.504310  2
|229>    2      0.320000      -0.151370  2
|230>   f 1
|231>    1      1.000000000    0.000000000 2
|232> end
|233> Ti>    4.00000000000   -3.25401964873   -2.96109353596   -1.27209143018
|234> NewECP
|235> N_core 0
|236>   lmax f
|237>   s 2
|238>    1      0.860000       9.191690  2
|239>    2      0.172000       0.008301  2
|240>   p 2
|241>    1      0.860000      17.997720  2
|242>    2      0.172000      -0.032600  2
|243>   d 2
|244>    1      1.600000      -9.504310  2
|245>    2      0.320000      -0.151370  2
|246>   f 1
|247>    1      1.000000000    0.000000000 2
|248> end
|249> Ti>    4.00000000000    0.00000000000    4.44164030394   -1.27209143018
|250> NewECP
|251> N_core 0
|252>   lmax f
|253>   s 2
|254>    1      0.860000       9.191690  2
|255>    2      0.172000       0.008301  2
|256>   p 2
|257>    1      0.860000      17.997720  2
|258>    2      0.172000      -0.032600  2
|259>   d 2
|260>    1      1.600000      -9.504310  2
|261>    2      0.320000      -0.151370  2
|262>   f 1
|263>    1      1.000000000    0.000000000 2
|264> end
|265> Ti>    4.00000000000    0.00000000000   -4.44164030394   -1.27209143018
|266> NewECP
|267> N_core 0
|268>   lmax f
|269>   s 2
|270>    1      0.860000       9.191690  2
|271>    2      0.172000       0.008301  2
|272>   p 2
|273>    1      0.860000      17.997720  2
|274>    2      0.172000      -0.032600  2
|275>   d 2
|276>    1      1.600000      -9.504310  2
|277>    2      0.320000      -0.151370  2
|278>   f 1
|279>    1      1.000000000    0.000000000 2
|280> end
|281> Ti>    4.00000000000    0.00000000000    2.96109353596   -4.52611107891
|282> NewECP
|283> N_core 0
|284>   lmax f
|285>   s 2
|286>    1      0.860000       9.191690  2
|287>    2      0.172000       0.008301  2
|288>   p 2
|289>    1      0.860000      17.997720  2
|290>    2      0.172000      -0.032600  2
|291>   d 2
|292>    1      1.600000      -9.504310  2
|293>    2      0.320000      -0.151370  2
|294>   f 1
|295>    1      1.000000000    0.000000000 2
|296> end
|297> Ti>    4.00000000000    0.00000000000   -2.96109353596   -4.52611107891
|298> NewECP
|299> N_core 0
|300>   lmax f
|301>   s 2
|302>    1      0.860000       9.191690  2
|303>    2      0.172000       0.008301  2
|304>   p 2
|305>    1      0.860000      17.997720  2
|306>    2      0.172000      -0.032600  2
|307>   d 2
|308>    1      1.600000      -9.504310  2
|309>    2      0.320000      -0.151370  2
|310>   f 1
|311>    1      1.000000000    0.000000000 2
|312> end
|313> Ti>    4.00000000000    0.00000000000    1.48054676798    5.23594786729
|314> NewECP
|315> N_core 0
|316>   lmax f
|317>   s 2
|318>    1      0.860000       9.191690  2
|319>    2      0.172000       0.008301  2
|320>   p 2
|321>    1      0.860000      17.997720  2
|322>    2      0.172000      -0.032600  2
|323>   d 2
|324>    1      1.600000      -9.504310  2
|325>    2      0.320000      -0.151370  2
|326>   f 1
|327>    1      1.000000000    0.000000000 2
|328> end
|329> Ti>    4.00000000000    0.00000000000   -1.48054676798    5.23594786729
|330> NewECP
|331> N_core 0
|332>   lmax f
|333>   s 2
|334>    1      0.860000       9.191690  2
|335>    2      0.172000       0.008301  2
|336>   p 2
|337>    1      0.860000      17.997720  2
|338>    2      0.172000      -0.032600  2
|339>   d 2
|340>    1      1.600000      -9.504310  2
|341>    2      0.320000      -0.151370  2
|342>   f 1
|343>    1      1.000000000    0.000000000 2
|344> end
|345> Ti>    4.00000000000   -3.25401964873    1.48054676798   -4.52611107891
|346> NewECP
|347> N_core 0
|348>   lmax f
|349>   s 2
|350>    1      0.860000       9.191690  2
|351>    2      0.172000       0.008301  2
|352>   p 2
|353>    1      0.860000      17.997720  2
|354>    2      0.172000      -0.032600  2
|355>   d 2
|356>    1      1.600000      -9.504310  2
|357>    2      0.320000      -0.151370  2
|358>   f 1
|359>    1      1.000000000    0.000000000 2
|360> end
|361> Ti>    4.00000000000    3.25401964873    1.48054676798   -4.52611107891
|362> NewECP
|363> N_core 0
|364>   lmax f
|365>   s 2
|366>    1      0.860000       9.191690  2
|367>    2      0.172000       0.008301  2
|368>   p 2
|369>    1      0.860000      17.997720  2
|370>    2      0.172000      -0.032600  2
|371>   d 2
|372>    1      1.600000      -9.504310  2
|373>    2      0.320000      -0.151370  2
|374>   f 1
|375>    1      1.000000000    0.000000000 2
|376> end
|377> Ti>    4.00000000000    3.25401964873   -1.48054676798   -4.52611107891
|378> NewECP
|379> N_core 0
|380>   lmax f
|381>   s 2
|382>    1      0.860000       9.191690  2
|383>    2      0.172000       0.008301  2
|384>   p 2
|385>    1      0.860000      17.997720  2
|386>    2      0.172000      -0.032600  2
|387>   d 2
|388>    1      1.600000      -9.504310  2
|389>    2      0.320000      -0.151370  2
|390>   f 1
|391>    1      1.000000000    0.000000000 2
|392> end
|393> Ti>    4.00000000000   -3.25401964873   -1.48054676798   -4.52611107891
|394> NewECP
|395> N_core 0
|396>   lmax f
|397>   s 2
|398>    1      0.860000       9.191690  2
|399>    2      0.172000       0.008301  2
|400>   p 2
|1147> N_core 0
|1148>   lmax f
|1149>   s 2
|1150>    1      0.860000       9.191690  2
|1151>    2      0.172000       0.008301  2
|1152>   p 2
|1153>    1      0.860000      17.997720  2
|1154>    2      0.172000      -0.032600  2
|1155>   d 2
|1156>    1      1.600000      -9.504310  2
|1157>    2      0.320000      -0.151370  2
|1158>   f 1
|1159>    1      1.000000000    0.000000000 2
|1160> end
|1161> Ti>    4.00000000000    6.50803929747    1.48054676798    5.23594786729
|1162> NewECP
|1163> N_core 0
|1164>   lmax f
|1165>   s 2
|1166>    1      0.860000       9.191690  2
|1167>    2      0.172000       0.008301  2
|1168>   p 2
|1169>    1      0.860000      17.997720  2
|1170>    2      0.172000      -0.032600  2
|1171>   d 2
|1172>    1      1.600000      -9.504310  2
|1173>    2      0.320000      -0.151370  2
|1174>   f 1
|1175>    1      1.000000000    0.000000000 2
|1176> end
|1177> Ti>    4.00000000000    6.50803929747   -1.48054676798    5.23594786729
|1178> NewECP
|1179> N_core 0
|1180>   lmax f
|1181>   s 2
|1182>    1      0.860000       9.191690  2
|1183>    2      0.172000       0.008301  2
|1184>   p 2
|1185>    1      0.860000      17.997720  2
|1186>    2      0.172000      -0.032600  2
|1187>   d 2
|1188>    1      1.600000      -9.504310  2
|1189>    2      0.320000      -0.151370  2
|1190>   f 1
|1191>    1      1.000000000    0.000000000 2
|1192> end
|1193> Ti>    4.00000000000   -6.50803929747   -1.48054676798    5.23594786729
|1194> NewECP
|1195> N_core 0
|1196>   lmax f
|1197>   s 2
|1198>    1      0.860000       9.191690  2
|1199>    2      0.172000       0.008301  2
|1200>   p 2
|1201>    1      0.860000      17.997720  2
|1202>    2      0.172000      -0.032600  2
|1203>   d 2
|1204>    1      1.600000      -9.504310  2
|1205>    2      0.320000      -0.151370  2
|1206>   f 1
|1207>    1      1.000000000    0.000000000 2
|1208> end
|1209> Ti>    4.00000000000    0.00000000000    0.00000000000    8.48996751602
|1210> NewECP
|1211> N_core 0
|1212>   lmax f
|1213>   s 2
|1214>    1      0.860000       9.191690  2
|1215>    2      0.172000       0.008301  2
|1216>   p 2
|1217>    1      0.860000      17.997720  2
|1218>    2      0.172000      -0.032600  2
|1219>   d 2
|1220>    1      1.600000      -9.504310  2
|1221>    2      0.320000      -0.151370  2
|1222>   f 1
|1223>    1      1.000000000    0.000000000 2
|1224> end
|1225> Ti>    4.00000000000   -3.25401964873    5.92218707193    5.23594786729
|1226> NewECP
|1227> N_core 0
|1228>   lmax f
|1229>   s 2
|1230>    1      0.860000       9.191690  2
|1231>    2      0.172000       0.008301  2
|1232>   p 2
|1233>    1      0.860000      17.997720  2
|1234>    2      0.172000      -0.032600  2
|1235>   d 2
|1236>    1      1.600000      -9.504310  2
|1237>    2      0.320000      -0.151370  2
|1238>   f 1
|1239>    1      1.000000000    0.000000000 2
|1240> end
|1241> Ti>    4.00000000000    3.25401964873    5.92218707193    5.23594786729
|1242> NewECP
|1243> N_core 0
|1244>   lmax f
|1245>   s 2
|1246>    1      0.860000       9.191690  2
|1247>    2      0.172000       0.008301  2
|1248>   p 2
|1249>    1      0.860000      17.997720  2
|1250>    2      0.172000      -0.032600  2
|1251>   d 2
|1252>    1      1.600000      -9.504310  2
|1253>    2      0.320000      -0.151370  2
|1254>   f 1
|1255>    1      1.000000000    0.000000000 2
|1256> end
|1257> Ti>    4.00000000000    3.25401964873   -5.92218707193    5.23594786729
|1258> NewECP
|1259> N_core 0
|1260>   lmax f
|1261>   s 2
|1262>    1      0.860000       9.191690  2
|1263>    2      0.172000       0.008301  2
|1264>   p 2
|1265>    1      0.860000      17.997720  2
|1266>    2      0.172000      -0.032600  2
|1267>   d 2
|1268>    1      1.600000      -9.504310  2
|1269>    2      0.320000      -0.151370  2
|1270>   f 1
|1271>    1      1.000000000    0.000000000 2
|1272> end
|1273> Ti>    4.00000000000   -3.25401964873   -5.92218707193    5.23594786729
|1274> NewECP
|1275> N_core 0
|1276>   lmax f
|1277>   s 2
|1278>    1      0.860000       9.191690  2
|1279>    2      0.172000       0.008301  2
|1280>   p 2
|1281>    1      0.860000      17.997720  2
|1282>    2      0.172000      -0.032600  2
|1283>   d 2
|1284>    1      1.600000      -9.504310  2
|1285>    2      0.320000      -0.151370  2
|1286>   f 1
|1287>    1      1.000000000    0.000000000 2
|1288> end
|1289> Ti>    4.00000000000    0.00000000000    2.96109353596    8.48996751602
|1290> NewECP
|1291> N_core 0
|1292>   lmax f
|1293>   s 2
|1294>    1      0.860000       9.191690  2
|1295>    2      0.172000       0.008301  2
|1296>   p 2
|1297>    1      0.860000      17.997720  2
|1298>    2      0.172000      -0.032600  2
|1299>   d 2
|1300>    1      1.600000      -9.504310  2
|1301>    2      0.320000      -0.151370  2
|1302>   f 1
|1303>    1      1.000000000    0.000000000 2
|1304> end
|1305> Ti>    4.00000000000    0.00000000000   -2.96109353596    8.48996751602
|1306> NewECP
|1307> N_core 0
|1308>   lmax f
|1309>   s 2
|1310>    1      0.860000       9.191690  2
|1311>    2      0.172000       0.008301  2
|1312>   p 2
|1313>    1      0.860000      17.997720  2
|1314>    2      0.172000      -0.032600  2
|1315>   d 2
|1316>    1      1.600000      -9.504310  2
|1317>    2      0.320000      -0.151370  2
|1318>   f 1
|1319>    1      1.000000000    0.000000000 2
|1320> end
|1321> Ti>    4.00000000000   -6.50803929747    5.92218707193    1.98192821856
|1322> NewECP
|1323> N_core 0
|1324>   lmax f
|1325>   s 2
|1326>    1      0.860000       9.191690  2
|1327>    2      0.172000       0.008301  2
|1328>   p 2
|1329>    1      0.860000      17.997720  2
|1330>    2      0.172000      -0.032600  2
|1331>   d 2
|1332>    1      1.600000      -9.504310  2
|1333>    2      0.320000      -0.151370  2
|1334>   f 1
|1335>    1      1.000000000    0.000000000 2
|1336> end
|1337> Ti>    4.00000000000    6.50803929747    5.92218707193    1.98192821856
|1338> NewECP
|1339> N_core 0
|1340>   lmax f
|1341>   s 2
|1342>    1      0.860000       9.191690  2
|1343>    2      0.172000       0.008301  2
|1344>   p 2
|1345>    1      0.860000      17.997720  2
|1346>    2      0.172000      -0.032600  2
|1347>   d 2
|1348>    1      1.600000      -9.504310  2
|1349>    2      0.320000      -0.151370  2
|1350>   f 1
|1351>    1      1.000000000    0.000000000 2
|1352> end
|1353> Ti>    4.00000000000    6.50803929747   -5.92218707193    1.98192821856
|1354> NewECP
|1355> N_core 0
|1356>   lmax f
|1357>   s 2
|1358>    1      0.860000       9.191690  2
|1359>    2      0.172000       0.008301  2
|1360>   p 2
|1361>    1      0.860000      17.997720  2
|1362>    2      0.172000      -0.032600  2
|1363>   d 2
|1364>    1      1.600000      -9.504310  2
|1365>    2      0.320000      -0.151370  2
|1366>   f 1
|1367>    1      1.000000000    0.000000000 2
|1368> end
|1369> Ti>    4.00000000000   -6.50803929747   -5.92218707193    1.98192821856
|1370> NewECP
|1371> N_core 0
|1372>   lmax f
|1373>   s 2
|1374>    1      0.860000       9.191690  2
|1375>    2      0.172000       0.008301  2
|1376>   p 2
|1377>    1      0.860000      17.997720  2
|1378>    2      0.172000      -0.032600  2
|1379>   d 2
|1380>    1      1.600000      -9.504310  2
|1381>    2      0.320000      -0.151370  2
|1382>   f 1
|1383>    1      1.000000000    0.000000000 2
|1384> end
|1385> Ti>    4.00000000000    0.00000000000    7.40273383991    5.23594786729
|1386> NewECP
|1387> N_core 0
|1388>   lmax f
|1389>   s 2
|1390>    1      0.860000       9.191690  2
|1391>    2      0.172000       0.008301  2
|1392>   p 2
|1393>    1      0.860000      17.997720  2
|1394>    2      0.172000      -0.032600  2
|1395>   d 2
|1396>    1      1.600000      -9.504310  2
|1397>    2      0.320000      -0.151370  2
|1398>   f 1
|1399>    1      1.000000000    0.000000000 2
|1400> end
|1401> Ti>    4.00000000000    0.00000000000   -7.40273383991    5.23594786729
|1402> NewECP
|1403> N_core 0
|1404>   lmax f
|1405>   s 2
|1406>    1      0.860000       9.191690  2
|1407>    2      0.172000       0.008301  2
|1408>   p 2
|1409>    1      0.860000      17.997720  2
|1410>    2      0.172000      -0.032600  2
|1411>   d 2
|1412>    1      1.600000      -9.504310  2
|1413>    2      0.320000      -0.151370  2
|1414>   f 1
|1415>    1      1.000000000    0.000000000 2
|1416> end
|1417> Ti>    4.00000000000   -3.25401964873    1.48054676798    8.48996751602
|1418> NewECP
|1419> N_core 0
|1420>   lmax f
|1421>   s 2
|1422>    1      0.860000       9.191690  2
|1423>    2      0.172000       0.008301  2
|1424>   p 2
|1425>    1      0.860000      17.997720  2
|1426>    2      0.172000      -0.032600  2
|1427>   d 2
|1428>    1      1.600000      -9.504310  2
|1429>    2      0.320000      -0.151370  2
|1430>   f 1
|1431>    1      1.000000000    0.000000000 2
|1432> end
|1433> Ti>    4.00000000000    3.25401964873    1.48054676798    8.48996751602
|1434> NewECP
|1435> N_core 0
|1436>   lmax f
|1437>   s 2
|1438>    1      0.860000       9.191690  2
|1439>    2      0.172000       0.008301  2
|1440>   p 2
|1441>    1      0.860000      17.997720  2
|1442>    2      0.172000      -0.032600  2
|1443>   d 2
|1444>    1      1.600000      -9.504310  2
|1445>    2      0.320000      -0.151370  2
|1446>   f 1
|1447>    1      1.000000000    0.000000000 2
|1448> end
|1449> Ti>    4.00000000000    3.25401964873   -1.48054676798    8.48996751602
|1450> NewECP
|1451> N_core 0
|1452>   lmax f
|1453>   s 2
|1454>    1      0.860000       9.191690  2
|1455>    2      0.172000       0.008301  2
|1456>   p 2
|1457>    1      0.860000      17.997720  2
|1458>    2      0.172000      -0.032600  2
|1459>   d 2
|1460>    1      1.600000      -9.504310  2
|1461>    2      0.320000      -0.151370  2
|1462>   f 1
|1463>    1      1.000000000    0.000000000 2
|1464> end
|1465> Ti>    4.00000000000   -3.25401964873   -1.48054676798    8.48996751602
|1466> NewECP
|1467> N_core 0
|1468>   lmax f
|1469>   s 2
|1470>    1      0.860000       9.191690  2
|1471>    2      0.172000       0.008301  2
|1472>   p 2
|1473>    1      0.860000      17.997720  2
|1474>    2      0.172000      -0.032600  2
|1475>   d 2
|1476>    1      1.600000      -9.504310  2
|1477>    2      0.320000      -0.151370  2
|1478>   f 1
|1479>    1      1.000000000    0.000000000 2
|1480> end
|1481> Ti>    4.00000000000   -6.50803929747    4.44164030394    5.23594786729
|1482> NewECP
|1483> N_core 0
|1484>   lmax f
|1485>   s 2
|1486>    1      0.860000       9.191690  2
|1487>    2      0.172000       0.008301  2
|1488>   p 2
|1489>    1      0.860000      17.997720  2
|1490>    2      0.172000      -0.032600  2
|1491>   d 2
|1492>    1      1.600000      -9.504310  2
|1493>    2      0.320000      -0.151370  2
|1494>   f 1
|1495>    1      1.000000000    0.000000000 2
|1496> end
|1497> Ti>    4.00000000000    6.50803929747    4.44164030394    5.23594786729
|1498> NewECP
|1499> N_core 0
|1500>   lmax f
|1501>   s 2
|1502>    1      0.860000       9.191690  2
|1503>    2      0.172000       0.008301  2
|1504>   p 2
|1505>    1      0.860000      17.997720  2
|1506>    2      0.172000      -0.032600  2
|1507>   d 2
|1508>    1      1.600000      -9.504310  2
|1509>    2      0.320000      -0.151370  2
|1510>   f 1
|1511>    1      1.000000000    0.000000000 2
|1512> end
|1513> Ti>    4.00000000000    6.50803929747   -4.44164030394    5.23594786729
|1514> NewECP
|1515> N_core 0
|1516>   lmax f
|1517>   s 2
|1518>    1      0.860000       9.191690  2
|1519>    2      0.172000       0.008301  2
|1520>   p 2
|1521>    1      0.860000      17.997720  2
|1522>    2      0.172000      -0.032600  2
|1523>   d 2
|1524>    1      1.600000      -9.504310  2
|1525>    2      0.320000      -0.151370  2
|1526>   f 1
|1527>    1      1.000000000    0.000000000 2
|1528> end
|1529> Ti>    4.00000000000   -6.50803929747   -4.44164030394    5.23594786729
|1530> NewECP
|1531> N_core 0
|1532>   lmax f
|1533>   s 2
|1534>    1      0.860000       9.191690  2
|1535>    2      0.172000       0.008301  2
|1536>   p 2
|1537>    1      0.860000      17.997720  2
|1538>    2      0.172000      -0.032600  2
|1539>   d 2
|1540>    1      1.600000      -9.504310  2
|1541>    2      0.320000      -0.151370  2
|1542>   f 1
|1543>    1      1.000000000    0.000000000 2
|1544> end
|1545>   end
|1546> endd                         ****END OF INPUT****

CARTESIAN COORDINATES (ANGSTROEM)
---------------------------------
  O      0.000000    0.000000    0.000000
  Ti     0.000000    1.480547   -1.272091
  Ti     0.000000   -1.480547   -1.272091
  Ti     0.000000    0.000000    1.981928
  O     -1.272091    1.480547    1.981928
  O      1.272091    1.480547    1.981928
  O      1.272091   -1.480547    1.981928
  O     -1.272091   -1.480547    1.981928
  O     -0.000000    0.000000    3.963856
  Ti>   -3.254020    0.000000   -1.272091
  Ti>    3.254020    0.000000   -1.272091
  Ti>    0.000000    2.961094    1.981928
  Ti>    0.000000   -2.961094    1.981928
  Ti>   -3.254020    1.480547    1.981928
  Ti>    3.254020    1.480547    1.981928
  Ti>    3.254020   -1.480547    1.981928
  Ti>   -3.254020   -1.480547    1.981928
  Ti>    0.000000    0.000000   -4.526111
  Ti>   -3.254020    2.961094   -1.272091
  Ti>    3.254020    2.961094   -1.272091
  Ti>    3.254020   -2.961094   -1.272091
  Ti>   -3.254020   -2.961094   -1.272091
  Ti>    0.000000    4.441640   -1.272091
  Ti>    0.000000   -4.441640   -1.272091
  Ti>    0.000000    2.961094   -4.526111
  Ti>    0.000000   -2.961094   -4.526111
  Ti>    0.000000    1.480547    5.235948
  Ti>    0.000000   -1.480547    5.235948
  Ti>   -3.254020    1.480547   -4.526111
  Ti>    3.254020    1.480547   -4.526111
  Ti>    3.254020   -1.480547   -4.526111
  Ti>   -3.254020   -1.480547   -4.526111
  Ti>   -3.254020    4.441640    1.981928
  Ti>    3.254020    4.441640    1.981928
  Ti>    3.254020   -4.441640    1.981928
  Ti>   -3.254020   -4.441640    1.981928
  Ti>   -3.254020    0.000000    5.235948
  Ti>    3.254020    0.000000    5.235948
  Ti>    0.000000    5.922187    1.981928
  Ti>    0.000000   -5.922187    1.981928
  Ti>   -6.508039    1.480547   -1.272091
  Ti>    6.508039    1.480547   -1.272091
  Ti>    6.508039   -1.480547   -1.272091
  Ti>   -6.508039   -1.480547   -1.272091
  Ti>   -6.508039    0.000000    1.981928
  Ti>    6.508039    0.000000    1.981928
  Ti>   -3.254020    2.961094    5.235948
  Ti>    3.254020    2.961094    5.235948
  Ti>    3.254020   -2.961094    5.235948
  Ti>   -3.254020   -2.961094    5.235948
  Ti>    0.000000    4.441640    5.235948
  Ti>    0.000000   -4.441640    5.235948
  Ti>   -3.254020    5.922187   -1.272091
  Ti>    3.254020    5.922187   -1.272091
  Ti>    3.254020   -5.922187   -1.272091
  Ti>   -3.254020   -5.922187   -1.272091
  Ti>   -3.254020    4.441640   -4.526111
  Ti>    3.254020    4.441640   -4.526111
  Ti>    3.254020   -4.441640   -4.526111
  Ti>   -3.254020   -4.441640   -4.526111
  Ti>   -6.508039    2.961094    1.981928
  Ti>    6.508039    2.961094    1.981928
  Ti>    6.508039   -2.961094    1.981928
  Ti>   -6.508039   -2.961094    1.981928
  Ti>    0.000000    5.922187   -4.526111
  Ti>    0.000000   -5.922187   -4.526111
  Ti>    0.000000    7.402734   -1.272091
  Ti>    0.000000   -7.402734   -1.272091
  Ti>    0.000000    1.480547   -7.780131
  Ti>    0.000000   -1.480547   -7.780131
  Ti>   -6.508039    4.441640   -1.272091
  Ti>    6.508039    4.441640   -1.272091
  Ti>    6.508039   -4.441640   -1.272091
  Ti>   -6.508039   -4.441640   -1.272091
  Ti>   -3.254020    7.402734    1.981928
  Ti>    3.254020    7.402734    1.981928
  Ti>    3.254020   -7.402734    1.981928
  Ti>   -3.254020   -7.402734    1.981928
  Ti>   -6.508039    1.480547    5.235948
  Ti>    6.508039    1.480547    5.235948
  Ti>    6.508039   -1.480547    5.235948
  Ti>   -6.508039   -1.480547    5.235948
  Ti>    0.000000    0.000000    8.489968
  Ti>   -3.254020    5.922187    5.235948
  Ti>    3.254020    5.922187    5.235948
  Ti>    3.254020   -5.922187    5.235948
  Ti>   -3.254020   -5.922187    5.235948
  Ti>    0.000000    2.961094    8.489968
  Ti>    0.000000   -2.961094    8.489968
  Ti>   -6.508039    5.922187    1.981928
  Ti>    6.508039    5.922187    1.981928
  Ti>    6.508039   -5.922187    1.981928
  Ti>   -6.508039   -5.922187    1.981928
  Ti>    0.000000    7.402734    5.235948
  Ti>    0.000000   -7.402734    5.235948
  Ti>   -3.254020    1.480547    8.489968
  Ti>    3.254020    1.480547    8.489968
  Ti>    3.254020   -1.480547    8.489968
  Ti>   -3.254020   -1.480547    8.489968
  Ti>   -6.508039    4.441640    5.235948
  Ti>    6.508039    4.441640    5.235948
  Ti>    6.508039   -4.441640    5.235948
  Ti>   -6.508039   -4.441640    5.235948

 Total Charge           Charge          ....    0
 Multiplicity           Mult            ....    1
 Number of Electrons    NEL             ....  106
 Basis Dimension        Dim             ....  378

ORBITAL ENERGIES
----------------

  NO   OCC          E(Eh)            E(eV)
   0   2.0000    -177.751099     -4836.8533
   1   2.0000    -177.751090     -4836.8531
   2   2.0000    -177.623718     -4833.3871
   3   2.0000     -19.548635      -531.9454
   4   2.0000     -19.548573      -531.9437
   5   2.0000     -19.408015      -528.1189
   6   2.0000     -18.561864      -505.0940
   7   2.0000     -18.561859      -505.0939
   8   2.0000     -18.561844      -505.0935
   9   2.0000     -18.561834      -505.0932
  10   2.0000     -18.551678      -504.8168
  11   2.0000     -16.340006      -444.6342
  12   2.0000     -16.340001      -444.6340
  13   2.0000     -16.338413      -444.5908
  14   2.0000     -16.338402      -444.5905
  15   2.0000     -16.327647      -444.2979
  16   2.0000     -16.327642      -444.2977
  17   2.0000     -16.194592      -440.6772
  18   2.0000     -16.194495      -440.6746
  19   2.0000     -16.194042      -440.6623
  20   2.0000      -2.211464       -60.1770
  21   2.0000      -2.211032       -60.1652
  22   2.0000      -2.138689       -58.1967
  23   2.0000      -1.354474       -36.8571
  24   2.0000      -1.354193       -36.8495
  25   2.0000      -1.352093       -36.7923
  26   2.0000      -1.351785       -36.7839
  27   2.0000      -1.341326       -36.4993
  28   2.0000      -1.337929       -36.4069
  29   2.0000      -1.296025       -35.2666
  30   2.0000      -1.293580       -35.2001
  31   2.0000      -1.292403       -35.1681
  32   2.0000      -0.720131       -19.5958
  33   2.0000      -0.703771       -19.1506
  34   2.0000      -0.702277       -19.1099
  35   2.0000      -0.698146       -18.9975
  36   2.0000      -0.695649       -18.9296
  37   2.0000      -0.248708        -6.7677
  38   2.0000      -0.216102        -5.8804
  39   2.0000      -0.212491        -5.7822
  40   2.0000      -0.211270        -5.7489
  41   2.0000      -0.202108        -5.4996
  42   2.0000      -0.200032        -5.4431
  43   2.0000      -0.181862        -4.9487
  44   2.0000      -0.173456        -4.7200
  45   2.0000      -0.159006        -4.3268
  46   2.0000      -0.158004        -4.2995
  47   2.0000      -0.154506        -4.2043
  48   2.0000      -0.151895        -4.1333
  49   2.0000      -0.134828        -3.6688
  50   2.0000      -0.133113        -3.6222
  51   2.0000      -0.116180        -3.1614
  52   2.0000      -0.058920        -1.6033
  53   0.0000      -0.038749        -1.0544
  54   0.0000      -0.034503        -0.9389
  55   0.0000      -0.029381        -0.7995
  56   0.0000      -0.027201        -0.7402
  57   0.0000      -0.027159        -0.7390

MULLIKEN ATOMIC CHARGES
-----------------------
   0 O :   -0.105219
   1 Ti:    3.103860
   2 Ti:    3.103860
   3 Ti:    0.917286
   4 O :   -1.369381
   5 O :   -1.369381
   6 O :   -1.369381
   7 O :   -1.369382
   8 O :   -1.542263
   9 Q :    4.000000
  10 Q :    4.000000
  11 Q :    4.000000
  12 Q :    4.000000
  13 Q :    4.000000
  14 Q :    4.000000
  15 Q :    4.000000
  16 Q :    4.000000
  17 Q :    4.000000
  18 Q :    4.000000
  19 Q :    4.000000
  20 Q :    4.000000
  21 Q :    4.000000
  22 Q :    4.000000
  23 Q :    4.000000
  24 Q :    4.000000
  25 Q :    4.000000
  26 Q :    4.000000
  27 Q :    4.000000
  28 Q :    4.000000
  29 Q :    4.000000
  30 Q :    4.000000
  31 Q :    4.000000
  32 Q :    4.000000
  33 Q :    4.000000
  34 Q :    4.000000
  35 Q :    4.000000
  36 Q :    4.000000
  37 Q :    4.000000
  38 Q :    4.000000
  39 Q :    4.000000
  40 Q :    4.000000
  41 Q :    4.000000
  42 Q :    4.000000
  43 Q :    4.000000
  44 Q :    4.000000
  45 Q :    4.000000
  46 Q :    4.000000
  47 Q :    4.000000
  48 Q :    4.000000
  49 Q :    4.000000
  50 Q :    4.000000
  51 Q :    4.000000
  52 Q :    4.000000
  53 Q :    4.000000
  54 Q :    4.000000
  55 Q :    4.000000
  56 Q :    4.000000
  57 Q :    4.000000
  58 Q :    4.000000
  59 Q :    4.000000
  60 Q :    4.000000
  61 Q :    4.000000
  62 Q :    4.000000
  63 Q :    4.000000
  64 Q :    4.000000
  65 Q :    4.000000
  66 Q :    4.000000
  67 Q :    4.000000
  68 Q :    4.000000
  69 Q :    4.000000
  70 Q :    4.000000
  71 Q :    4.000000
  72 Q :    4.000000
  73 Q :    4.000000
  74 Q :    4.000000
  75 Q :    4.000000
  76 Q :    4.000000
  77 Q :    4.000000
  78 Q :    4.000000
  79 Q :    4.000000
  80 Q :    4.000000
  81 Q :    4.000000
  82 Q :    4.000000
  83 Q :    4.000000
  84 Q :    4.000000
  85 Q :    4.000000
  86 Q :    4.000000
  87 Q :    4.000000
  88 Q :    4.000000
  89 Q :    4.000000
  90 Q :    4.000000
  91 Q :    4.000000
  92 Q :    4.000000
  93 Q :    4.000000
  94 Q :    4.000000
  95 Q :    4.000000
  96 Q :    4.000000
  97 Q :    4.000000
  98 Q :    4.000000
  99 Q :    4.000000
 100 Q :    4.000000
 101 Q :    4.000000
 102 Q :    4.000000
Sum of atomic charges:  376.0000000

LOEWDIN ATOMIC CHARGES
----------------------
   0 O :   -0.390990
   1 Ti:    3.069858
   2 Ti:    3.069859
   3 Ti:   -1.134577
   4 O :   -0.900986
   5 O :   -0.900986
   6 O :   -0.900986
   7 O :   -0.900986
   8 O :   -1.010208
   9 Q :    4.000000
  10 Q :    4.000000
  11 Q :    4.000000
  12 Q :    4.000000
  13 Q :    4.000000
  14 Q :    4.000000
  15 Q :    4.000000
  16 Q :    4.000000
  17 Q :    4.000000
  18 Q :    4.000000
  19 Q :    4.000000
  20 Q :    4.000000
  21 Q :    4.000000
  22 Q :    4.000000
  23 Q :    4.000000
  24 Q :    4.000000
  25 Q :    4.000000
  26 Q :    4.000000
  27 Q :    4.000000
  28 Q :    4.000000
  29 Q :    4.000000
  30 Q :    4.000000
  31 Q :    4.000000
  32 Q :    4.000000
  33 Q :    4.000000
  34 Q :    4.000000
  35 Q :    4.000000
  36 Q :    4.000000
  37 Q :    4.000000
  38 Q :    4.000000
  39 Q :    4.000000
  40 Q :    4.000000
  41 Q :    4.000000
  42 Q :    4.000000
  43 Q :    4.000000
  44 Q :    4.000000
  45 Q :    4.000000
  46 Q :    4.000000
  47 Q :    4.000000
  48 Q :    4.000000
  49 Q :    4.000000
  50 Q :    4.000000
  51 Q :    4.000000
  52 Q :    4.000000
  53 Q :    4.000000
  54 Q :    4.000000
  55 Q :    4.000000
  56 Q :    4.000000
  57 Q :    4.000000
  58 Q :    4.000000
  59 Q :    4.000000
  60 Q :    4.000000
  61 Q :    4.000000
  62 Q :    4.000000
  63 Q :    4.000000
  64 Q :    4.000000
  65 Q :    4.000000
  66 Q :    4.000000
  67 Q :    4.000000
  68 Q :    4.000000
  69 Q :    4.000000
  70 Q :    4.000000
  71 Q :    4.000000
  72 Q :    4.000000
  73 Q :    4.000000
  74 Q :    4.000000
  75 Q :    4.000000
  76 Q :    4.000000
  77 Q :    4.000000
  78 Q :    4.000000
  79 Q :    4.000000
  80 Q :    4.000000
  81 Q :    4.000000
  82 Q :    4.000000
  83 Q :    4.000000
  84 Q :    4.000000
  85 Q :    4.000000
  86 Q :    4.000000
  87 Q :    4.000000
  88 Q :    4.000000
  89 Q :    4.000000
  90 Q :    4.000000
  91 Q :    4.000000
  92 Q :    4.000000
  93 Q :    4.000000
  94 Q :    4.000000
  95 Q :    4.000000
  96 Q :    4.000000
  97 Q :    4.000000
  98 Q :    4.000000
  99 Q :    4.000000
 100 Q :    4.000000
 101 Q :    4.000000
 102 Q :    4.000000

  Mayer bond orders larger than 0.100000
B(  1-Ti,  2-Ti) :   0.6657 B(  1-Ti,  3-Ti) :   0.1766 B(  2-Ti,  3-Ti) :   0.1766
B(  3-Ti,  4-O ) :   0.8365 B(  3-Ti,  5-O ) :   0.8365 B(  3-Ti,  6-O ) :   0.8365
B(  3-Ti,  7-O ) :   0.8365 B(  3-Ti,  8-O ) :   0.7231

FINAL SINGLE POINT ENERGY     -8152.019478224845

DIPOLE MOMENT
-------------
                                X             Y             Z
Electronic contribution:      0.00000      -0.00000     -54.40248
Nuclear contribution   :      0.00000       0.00000     506.06728
                        -----------------------------------------
Total Dipole Moment    :      0.00000      -0.00000     451.66481
                        -----------------------------------------
Magnitude (a.u.)       :    451.66481
Magnitude (Debye)      :   1148.04070

Rotational constants in cm-1:     0.037145     0.020304     0.015653
Rotational constants in MHz :  1113.574845   608.705145   469.260597

                             ****ORCA TERMINATED NORMALLY****
TOTAL RUN TIME: 0 days 0 hours 0 minutes 45 seconds 788 msec
