                         Program Version 5.0.1 -  RELEASE  -
|  1> ! VeryTightSCF DLPNO-CCSD(T) NormalPNO RIJCOSX SlowConv DIIS
|  2> %maxcore 72000
|  3> %pal
|  4> nprocs 16
|  5> end
|  6> %pointcharges "orca.bq"
|  7> %method
|  8> Method hf
|  9> RI on
| 10> RunTyp Energy
| 11> NewNCore Ti 18 end
| 12> NewNCore O 2 end
| 13> end
| 14> %basis
| 15> Basis "def2-QZVPP"
| 16> Aux "def2/J"
| 17> AuxC "def2-QZVPP/C"
| 18> end
| 19> %scf
| 20> HFTyp rhf
| 21> Guess Hueckel
| 22> AutoStart True
| 23> SCFMode Direct
| 24> MaxIter 1000
| 25> sthresh 1e-6
| 26> AutoTRAHIter 100
| 27> end
| 28> %mdci
| 29>     StorageType Shared
| 30> end
| 31> %coords
| 32> CTyp xyz
| 33> Mult 1
| 34> Units angs
| 35>   Charge -12
| 36>   coords
| 37> O:                      0.00000000000    0.00000000000    0.00000000000
| 38> Ti                      0.00000536997    1.48055149700   -1.06892606631
| 39> Ti                      0.00000552101   -1.48055312386   -1.06892138720
| 40> O                       0.00000442396   -0.00000111986   -2.54840301833
| 41> O                      -2.03525914147    1.48054518365   -1.11149385695
| 42> O                       2.03526534753    1.48054527935   -1.11149163807
| 43> O                       2.03526471018   -1.48054700097   -1.11149295951
| 44> O                      -2.03525907462   -1.48054722666   -1.11149503385
| 45> O                      -0.00000037752    2.96109155033   -0.00000271770
| 46> O                      -0.00000037752   -2.96109552160   -0.00000271770
| 47> O                       0.00000449994    2.96109199200   -2.54840438198
| 48> O                       0.00000449994   -2.96109507993   -2.54840438198
| 49> Ti>    4.00000000000    3.25402319191   -0.00000112036   -1.42716202606
| 50> NewECP
| 51> N_core 0
| 52>   lmax f
| 53>   s 2
| 54>    1      0.860000       9.191690  2
| 55>    2      0.172000       0.008301  2
| 56>   p 2
| 57>    1      0.860000      17.997720  2
| 58>    2      0.172000      -0.032600  2
| 59>   d 2
| 60>    1      1.600000      -9.504310  2
| 61>    2      0.320000      -0.151370  2
| 62>   f 1
| 63>    1      1.000000000    0.000000000 2
| 64> end
| 65> Ti>    4.00000000000   -3.25401610555   -0.00000112036   -1.42716202606
| 66> NewECP
| 67> N_core 0
| 68>   lmax f
| 69>   s 2
| 70>    1      0.860000       9.191690  2
| 71>    2      0.172000       0.008301  2
| 72>   p 2
| 73>    1      0.860000      17.997720  2
| 74>    2      0.172000      -0.032600  2
| 75>   d 2
| 76>    1      1.600000      -9.504310  2
| 77>    2      0.320000      -0.151370  2
| 78>   f 1
| 79>    1      1.000000000    0.000000000 2
| 80> end
| 81> Ti>    4.00000000000   -0.00005220374   -0.00000071014   -4.41288396045
| 82> NewECP
| 83> N_core 0
| 84>   lmax f
| 85>   s 2
| 86>    1      0.860000       9.191690  2
| 87>    2      0.172000       0.008301  2
| 88>   p 2
| 89>    1      0.860000      17.997720  2
| 90>    2      0.172000      -0.032600  2
| 91>   d 2
| 92>    1      1.600000      -9.504310  2
| 93>    2      0.320000      -0.151370  2
| 94>   f 1
| 95>    1      1.000000000    0.000000000 2
| 96> end
| 97> Ti>    4.00000000000    0.00000552101    4.44163394806   -1.06892138720
| 98> NewECP
| 99> N_core 0
|100>   lmax f
|101>   s 2
|102>    1      0.860000       9.191690  2
|103>    2      0.172000       0.008301  2
|104>   p 2
|105>    1      0.860000      17.997720  2
|106>    2      0.172000      -0.032600  2
|107>   d 2
|108>    1      1.600000      -9.504310  2
|109>    2      0.320000      -0.151370  2
|110>   f 1
|111>    1      1.000000000    0.000000000 2
|112> end
|113> Ti>    4.00000000000    0.00000536997   -4.44163557493   -1.06892606631
|114> NewECP
|115> N_core 0
|116>   lmax f
|117>   s 2
|118>    1      0.860000       9.191690  2
|119>    2      0.172000       0.008301  2
|120>   p 2
|121>    1      0.860000      17.997720  2
|122>    2      0.172000      -0.032600  2
|123>   d 2
|124>    1      1.600000      -9.504310  2
|125>    2      0.320000      -0.151370  2
|126>   f 1
|127>    1      1.000000000    0.000000000 2
|128> end
|129> Ti>    4.00000000000   -3.25401668289    2.96109302555   -1.42716235830
|130> NewECP
|131> N_core 0
|132>   lmax f
|133>   s 2
|134>    1      0.860000       9.191690  2
|135>    2      0.172000       0.008301  2
|136>   p 2
|137>    1      0.860000      17.997720  2
|138>    2      0.172000      -0.032600  2
|139>   d 2
|140>    1      1.600000      -9.504310  2
|141>    2      0.320000      -0.151370  2
|142>   f 1
|143>    1      1.000000000    0.000000000 2
|144> end
|145> Ti>    4.00000000000    3.25402261457    2.96109302555   -1.42716235830
|146> NewECP
|147> N_core 0
|148>   lmax f
|149>   s 2
|150>    1      0.860000       9.191690  2
|151>    2      0.172000       0.008301  2
|152>   p 2
|153>    1      0.860000      17.997720  2
|154>    2      0.172000      -0.032600  2
|155>   d 2
|156>    1      1.600000      -9.504310  2
|157>    2      0.320000      -0.151370  2
|158>   f 1
|159>    1      1.000000000    0.000000000 2
|160> end
|161> Ti>    4.00000000000    3.25402261457   -2.96109404638   -1.42716235830
|162> NewECP
|163> N_core 0
|164>   lmax f
|165>   s 2
|166>    1      0.860000       9.191690  2
|167>    2      0.172000       0.008301  2
|168>   p 2
|169>    1      0.860000      17.997720  2
|170>    2      0.172000      -0.032600  2
|171>   d 2
|172>    1      1.600000      -9.504310  2
|173>    2      0.320000      -0.151370  2
|174>   f 1
|175>    1      1.000000000    0.000000000 2
|176> end
|177> Ti>    4.00000000000   -3.25401668289   -2.96109404638   -1.42716235830
|178> NewECP
|179> N_core 0
|180>   lmax f
|181>   s 2
|182>    1      0.860000       9.191690  2
|183>    2      0.172000       0.008301  2
|184>   p 2
|185>    1      0.860000      17.997720  2
|186>    2      0.172000      -0.032600  2
|187>   d 2
|188>    1      1.600000      -9.504310  2
|189>    2      0.320000      -0.151370  2
|190>   f 1
|191>    1      1.000000000    0.000000000 2
|192> end
|193> Ti>    4.00000000000   -0.00005206359    2.96109301637   -4.41288206312
|194> NewECP
|195> N_core 0
|196>   lmax f
|197>   s 2
|198>    1      0.860000       9.191690  2
|199>    2      0.172000       0.008301  2
|200>   p 2
|201>    1      0.860000      17.997720  2
|202>    2      0.172000      -0.032600  2
|203>   d 2
|204>    1      1.600000      -9.504310  2
|205>    2      0.320000      -0.151370  2
|206>   f 1
|207>    1      1.000000000    0.000000000 2
|208> end
|209> Ti>    4.00000000000   -0.00005206359   -2.96109405556   -4.41288206312
|210> NewECP
|211> N_core 0
|212>   lmax f
|213>   s 2
|214>    1      0.860000       9.191690  2
|215>    2      0.172000       0.008301  2
|216>   p 2
|217>    1      0.860000      17.997720  2
|218>    2      0.172000      -0.032600  2
|219>   d 2
|220>    1      1.600000      -9.504310  2
|221>    2      0.320000      -0.151370  2
|222>   f 1
|223>    1      1.000000000    0.000000000 2
|224> end
|225> Ti>    4.00000000000    3.25395215162    1.48054533538   -4.59991327640
|226> NewECP
|227> N_core 0
|228>   lmax f
|229>   s 2
|230>    1      0.860000       9.191690  2
|231>    2      0.172000       0.008301  2
|232>   p 2
|233>    1      0.860000      17.997720  2
|234>    2      0.172000      -0.032600  2
|235>   d 2
|236>    1      1.600000      -9.504310  2
|237>    2      0.320000      -0.151370  2
|238>   f 1
|239>    1      1.000000000    0.000000000 2
|240> end
|241> Ti>    4.00000000000    3.25395195581   -1.48054722422   -4.59991284715
|242> NewECP
|243> N_core 0
|244>   lmax f
|245>   s 2
|246>    1      0.860000       9.191690  2
|247>    2      0.172000       0.008301  2
|248>   p 2
|249>    1      0.860000      17.997720  2
|250>    2      0.172000      -0.032600  2
|251>   d 2
|252>    1      1.600000      -9.504310  2
|253>    2      0.320000      -0.151370  2
|254>   f 1
|255>    1      1.000000000    0.000000000 2
|256> end
|257> Ti>    4.00000000000   -3.25408714585    1.48054533538   -4.59991327640
|258> NewECP
|259> N_core 0
|260>   lmax f
|261>   s 2
|262>    1      0.860000       9.191690  2
|263>    2      0.172000       0.008301  2
|264>   p 2
|265>    1      0.860000      17.997720  2
|266>    2      0.172000      -0.032600  2
|267>   d 2
|268>    1      1.600000      -9.504310  2
|269>    2      0.320000      -0.151370  2
|270>   f 1
|271>    1      1.000000000    0.000000000 2
|272> end
|273> Ti>    4.00000000000   -3.25408734165   -1.48054722422   -4.59991284715
|274> NewECP
|275> N_core 0
|276>   lmax f
|277>   s 2
|278>    1      0.860000       9.191690  2
|279>    2      0.172000       0.008301  2
|280>   p 2
|281>    1      0.860000      17.997720  2
|282>    2      0.172000      -0.032600  2
|283>   d 2
|284>    1      1.600000      -9.504310  2
|285>    2      0.320000      -0.151370  2
|286>   f 1
|287>    1      1.000000000    0.000000000 2
|288> end
|289> Ti>    4.00000000000   -6.50803392749    1.48055149700   -1.06892606631
|290> NewECP
|291> N_core 0
|292>   lmax f
|293>   s 2
|294>    1      0.860000       9.191690  2
|295>    2      0.172000       0.008301  2
|296>   p 2
|297>    1      0.860000      17.997720  2
|298>    2      0.172000      -0.032600  2
|299>   d 2
|300>    1      1.600000      -9.504310  2
|301>    2      0.320000      -0.151370  2
|302>   f 1
|303>    1      1.000000000    0.000000000 2
|304> end
|305> Ti>    4.00000000000    6.50804466744    1.48055149700   -1.06892606631
|306> NewECP
|307> N_core 0
|308>   lmax f
|309>   s 2
|310>    1      0.860000       9.191690  2
|311>    2      0.172000       0.008301  2
|312>   p 2
|313>    1      0.860000      17.997720  2
|314>    2      0.172000      -0.032600  2
|315>   d 2
|316>    1      1.600000      -9.504310  2
|317>    2      0.320000      -0.151370  2
|318>   f 1
|319>    1      1.000000000    0.000000000 2
|320> end
|321> Ti>    4.00000000000    6.50804481848   -1.48055312386   -1.06892138720
|322> NewECP
|323> N_core 0
|324>   lmax f
|325>   s 2
|326>    1      0.860000       9.191690  2
|327>    2      0.172000       0.008301  2
|328>   p 2
|329>    1      0.860000      17.997720  2
|330>    2      0.172000      -0.032600  2
|331>   d 2
|332>    1      1.600000      -9.504310  2
|333>    2      0.320000      -0.151370  2
|334>   f 1
|335>    1      1.000000000    0.000000000 2
|336> end
|337> Ti>    4.00000000000   -6.50803377645   -1.48055312386   -1.06892138720
|338> NewECP
|339> N_core 0
|340>   lmax f
|341>   s 2
|342>    1      0.860000       9.191690  2
|343>    2      0.172000       0.008301  2
|344>   p 2
|345>    1      0.860000      17.997720  2
|346>    2      0.172000      -0.032600  2
|347>   d 2
|348>    1      1.600000      -9.504310  2
|349>    2      0.320000      -0.151370  2
|350>   f 1
|351>    1      1.000000000    0.000000000 2
|352> end
|353> Ti>    4.00000000000   -3.25401610555    5.92218595157   -1.42716202606
|354> NewECP
|355> N_core 0
|356>   lmax f
|357>   s 2
|358>    1      0.860000       9.191690  2
|359>    2      0.172000       0.008301  2
|360>   p 2
|361>    1      0.860000      17.997720  2
|362>    2      0.172000      -0.032600  2
|363>   d 2
|364>    1      1.600000      -9.504310  2
|365>    2      0.320000      -0.151370  2
|366>   f 1
|367>    1      1.000000000    0.000000000 2
|368> end
|369> Ti>    4.00000000000    3.25402319191    5.92218595157   -1.42716202606
|370> NewECP
|371> N_core 0
|372>   lmax f
|373>   s 2
|374>    1      0.860000       9.191690  2
|375>    2      0.172000       0.008301  2
|376>   p 2
|377>    1      0.860000      17.997720  2
|378>    2      0.172000      -0.032600  2
|379>   d 2
|380>    1      1.600000      -9.504310  2
|381>    2      0.320000      -0.151370  2
|382>   f 1
|383>    1      1.000000000    0.000000000 2
|384> end
|385> Ti>    4.00000000000    3.25402319191   -5.92218819228   -1.42716202606
|386> NewECP
|387> N_core 0
|388>   lmax f
|389>   s 2
|390>    1      0.860000       9.191690  2
|391>    2      0.172000       0.008301  2
|392>   p 2
|393>    1      0.860000      17.997720  2
|394>    2      0.172000      -0.032600  2
|395>   d 2
|396>    1      1.600000      -9.504310  2
|397>    2      0.320000      -0.151370  2
|398>   f 1
|399>    1      1.000000000    0.000000000 2
|400> end
|723> N_core 0
|724>   lmax f
|725>   s 2
|726>    1      0.860000       9.191690  2
|727>    2      0.172000       0.008301  2
|728>   p 2
|729>    1      0.860000      17.997720  2
|730>    2      0.172000      -0.032600  2
|731>   d 2
|732>    1      1.600000      -9.504310  2
|733>    2      0.320000      -0.151370  2
|734>   f 1
|735>    1      1.000000000    0.000000000 2
|736> end
|737> Ti>    4.00000000000    3.25401657974   -0.00000100232   -7.78540932970
|738> NewECP
|739> N_core 0
|740>   lmax f
|741>   s 2
|742>    1      0.860000       9.191690  2
|743>    2      0.172000       0.008301  2
|744>   p 2
|745>    1      0.860000      17.997720  2
|746>    2      0.172000      -0.032600  2
|747>   d 2
|748>    1      1.600000      -9.504310  2
|749>    2      0.320000      -0.151370  2
|750>   f 1
|751>    1      1.000000000    0.000000000 2
|752> end
|753> Ti>    4.00000000000   -3.25402271772   -0.00000100232   -7.78540932970
|754> NewECP
|755> N_core 0
|756>   lmax f
|757>   s 2
|758>    1      0.860000       9.191690  2
|759>    2      0.172000       0.008301  2
|760>   p 2
|761>    1      0.860000      17.997720  2
|762>    2      0.172000      -0.032600  2
|763>   d 2
|764>    1      1.600000      -9.504310  2
|765>    2      0.320000      -0.151370  2
|766>   f 1
|767>    1      1.000000000    0.000000000 2
|768> end
|769> Ti>    4.00000000000   -3.25402271772    2.96109253364   -7.78540932970
|770> NewECP
|771> N_core 0
|772>   lmax f
|773>   s 2
|774>    1      0.860000       9.191690  2
|775>    2      0.172000       0.008301  2
|776>   p 2
|777>    1      0.860000      17.997720  2
|778>    2      0.172000      -0.032600  2
|779>   d 2
|780>    1      1.600000      -9.504310  2
|781>    2      0.320000      -0.151370  2
|782>   f 1
|783>    1      1.000000000    0.000000000 2
|784> end
|785> Ti>    4.00000000000    3.25401657974    2.96109253364   -7.78540932970
|786> NewECP
|787> N_core 0
|788>   lmax f
|789>   s 2
|790>    1      0.860000       9.191690  2
|791>    2      0.172000       0.008301  2
|792>   p 2
|793>    1      0.860000      17.997720  2
|794>    2      0.172000      -0.032600  2
|795>   d 2
|796>    1      1.600000      -9.504310  2
|797>    2      0.320000      -0.151370  2
|798>   f 1
|799>    1      1.000000000    0.000000000 2
|800> end
|801> Ti>    4.00000000000    3.25401657974   -2.96109453828   -7.78540932970
|802> NewECP
|803> N_core 0
|804>   lmax f
|805>   s 2
|806>    1      0.860000       9.191690  2
|807>    2      0.172000       0.008301  2
|808>   p 2
|809>    1      0.860000      17.997720  2
|810>    2      0.172000      -0.032600  2
|811>   d 2
|812>    1      1.600000      -9.504310  2
|813>    2      0.320000      -0.151370  2
|814>   f 1
|815>    1      1.000000000    0.000000000 2
|816> end
|817> Ti>    4.00000000000   -3.25402271772   -2.96109453828   -7.78540932970
|818> NewECP
|819> N_core 0
|820>   lmax f
|821>   s 2
|822>    1      0.860000       9.191690  2
|823>    2      0.172000       0.008301  2
|824>   p 2
|825>    1      0.860000      17.997720  2
|826>    2      0.172000      -0.032600  2
|827>   d 2
|828>    1      1.600000      -9.504310  2
|829>    2      0.320000      -0.151370  2
|830>   f 1
|831>    1      1.000000000    0.000000000 2
|832> end
|833> Ti>    4.00000000000   -0.00000306899    4.44163930162   -7.78540932970
|834> NewECP
|835> N_core 0
|836>   lmax f
|837>   s 2
|838>    1      0.860000       9.191690  2
|839>    2      0.172000       0.008301  2
|840>   p 2
|841>    1      0.860000      17.997720  2
|842>    2      0.172000      -0.032600  2
|843>   d 2
|844>    1      1.600000      -9.504310  2
|845>    2      0.320000      -0.151370  2
|846>   f 1
|847>    1      1.000000000    0.000000000 2
|848> end
|849> Ti>    4.00000000000   -0.00000306899   -4.44164130627   -7.78540932970
|850> NewECP
|851> N_core 0
|852>   lmax f
|853>   s 2
|854>    1      0.860000       9.191690  2
|855>    2      0.172000       0.008301  2
|856>   p 2
|857>    1      0.860000      17.997720  2
|858>    2      0.172000      -0.032600  2
|859>   d 2
|860>    1      1.600000      -9.504310  2
|861>    2      0.320000      -0.151370  2
|862>   f 1
|863>    1      1.000000000    0.000000000 2
|864> end
|865> Ti>    4.00000000000   -3.25408714585    7.40273240730   -4.59991327640
|866> NewECP
|867> N_core 0
|868>   lmax f
|869>   s 2
|870>    1      0.860000       9.191690  2
|871>    2      0.172000       0.008301  2
|872>   p 2
|873>    1      0.860000      17.997720  2
|874>    2      0.172000      -0.032600  2
|875>   d 2
|876>    1      1.600000      -9.504310  2
|877>    2      0.320000      -0.151370  2
|878>   f 1
|879>    1      1.000000000    0.000000000 2
|880> end
|881> Ti>    4.00000000000    3.25395215162    7.40273240730   -4.59991327640
|882> NewECP
|883> N_core 0
|884>   lmax f
|885>   s 2
|886>    1      0.860000       9.191690  2
|887>    2      0.172000       0.008301  2
|888>   p 2
|889>    1      0.860000      17.997720  2
|890>    2      0.172000      -0.032600  2
|891>   d 2
|892>    1      1.600000      -9.504310  2
|893>    2      0.320000      -0.151370  2
|894>   f 1
|895>    1      1.000000000    0.000000000 2
|896> end
|897> Ti>    4.00000000000    3.25395195581   -7.40273429615   -4.59991284715
|898> NewECP
|899> N_core 0
|900>   lmax f
|901>   s 2
|902>    1      0.860000       9.191690  2
|903>    2      0.172000       0.008301  2
|904>   p 2
|905>    1      0.860000      17.997720  2
|906>    2      0.172000      -0.032600  2
|907>   d 2
|908>    1      1.600000      -9.504310  2
|909>    2      0.320000      -0.151370  2
|910>   f 1
|911>    1      1.000000000    0.000000000 2
|912> end
|913> Ti>    4.00000000000   -3.25408734165   -7.40273429615   -4.59991284715
|914> NewECP
|915> N_core 0
|916>   lmax f
|917>   s 2
|918>    1      0.860000       9.191690  2
|919>    2      0.172000       0.008301  2
|920>   p 2
|921>    1      0.860000      17.997720  2
|922>    2      0.172000      -0.032600  2
|923>   d 2
|924>    1      1.600000      -9.504310  2
|925>    2      0.320000      -0.151370  2
|926>   f 1
|927>    1      1.000000000    0.000000000 2
|928> end
|929> Ti>    4.00000000000   -3.25401668289    8.88328009748   -1.42716235830
|930> NewECP
|931> N_core 0
|932>   lmax f
|933>   s 2
|934>    1      0.860000       9.191690  2
|935>    2      0.172000       0.008301  2
|936>   p 2
|937>    1      0.860000      17.997720  2
|938>    2      0.172000      -0.032600  2
|939>   d 2
|940>    1      1.600000      -9.504310  2
|941>    2      0.320000      -0.151370  2
|942>   f 1
|943>    1      1.000000000    0.000000000 2
|944> end
|945> Ti>    4.00000000000    3.25402261457    8.88328009748   -1.42716235830
|946> NewECP
|947> N_core 0
|948>   lmax f
|949>   s 2
|950>    1      0.860000       9.191690  2
|951>    2      0.172000       0.008301  2
|952>   p 2
|953>    1      0.860000      17.997720  2
|954>    2      0.172000      -0.032600  2
|955>   d 2
|956>    1      1.600000      -9.504310  2
|957>    2      0.320000      -0.151370  2
|958>   f 1
|959>    1      1.000000000    0.000000000 2
|960> end
|961> Ti>    4.00000000000    3.25402261457   -8.88328111830   -1.42716235830
|962> NewECP
|963> N_core 0
|964>   lmax f
|965>   s 2
|966>    1      0.860000       9.191690  2
|967>    2      0.172000       0.008301  2
|968>   p 2
|969>    1      0.860000      17.997720  2
|970>    2      0.172000      -0.032600  2
|971>   d 2
|972>    1      1.600000      -9.504310  2
|973>    2      0.320000      -0.151370  2
|974>   f 1
|975>    1      1.000000000    0.000000000 2
|976> end
|977> Ti>    4.00000000000   -3.25401668289   -8.88328111830   -1.42716235830
|978> NewECP
|979> N_core 0
|980>   lmax f
|981>   s 2
|982>    1      0.860000       9.191690  2
|983>    2      0.172000       0.008301  2
|984>   p 2
|985>    1      0.860000      17.997720  2
|986>    2      0.172000      -0.032600  2
|987>   d 2
|988>    1      1.600000      -9.504310  2
|989>    2      0.320000      -0.151370  2
|990>   f 1
|991>    1      1.000000000    0.000000000 2
|992> end
|993> Ti>    4.00000000000   -0.00005206359    8.88328008829   -4.41288206312
|994> NewECP
|995> N_core 0
|996>   lmax f
|997>   s 2
|998>    1      0.860000       9.191690  2
|999>    2      0.172000       0.008301  2
|1000>   p 2
|1001>    1      0.860000      17.997720  2
|1002>    2      0.172000      -0.032600  2
|1003>   d 2
|1004>    1      1.600000      -9.504310  2
|1005>    2      0.320000      -0.151370  2
|1006>   f 1
|1007>    1      1.000000000    0.000000000 2
|1008> end
|1009> Ti>    4.00000000000   -0.00005206359   -8.88328112748   -4.41288206312
|1010> NewECP
|1011> N_core 0
|1012>   lmax f
|1013>   s 2
|1014>    1      0.860000       9.191690  2
|1015>    2      0.172000       0.008301  2
|1016>   p 2
|1017>    1      0.860000      17.997720  2
|1018>    2      0.172000      -0.032600  2
|1019>   d 2
|1020>    1      1.600000      -9.504310  2
|1021>    2      0.320000      -0.151370  2
|1022>   f 1
|1023>    1      1.000000000    0.000000000 2
|1024> end
|1025> Ti>    4.00000000000   -3.25402271772    5.92218606960   -7.78540932970
|1026> NewECP
|1027> N_core 0
|1028>   lmax f
|1029>   s 2
|1030>    1      0.860000       9.191690  2
|1031>    2      0.172000       0.008301  2
|1032>   p 2
|1033>    1      0.860000      17.997720  2
|1034>    2      0.172000      -0.032600  2
|1035>   d 2
|1036>    1      1.600000      -9.504310  2
|1037>    2      0.320000      -0.151370  2
|1038>   f 1
|1039>    1      1.000000000    0.000000000 2
|1040> end
|1041> Ti>    4.00000000000    3.25401657974    5.92218606960   -7.78540932970
|1042> NewECP
|1043> N_core 0
|1044>   lmax f
|1045>   s 2
|1046>    1      0.860000       9.191690  2
|1047>    2      0.172000       0.008301  2
|1048>   p 2
|1049>    1      0.860000      17.997720  2
|1050>    2      0.172000      -0.032600  2
|1051>   d 2
|1052>    1      1.600000      -9.504310  2
|1053>    2      0.320000      -0.151370  2
|1054>   f 1
|1055>    1      1.000000000    0.000000000 2
|1056> end
|1057> Ti>    4.00000000000    3.25401657974   -5.92218807425   -7.78540932970
|1058> NewECP
|1059> N_core 0
|1060>   lmax f
|1061>   s 2
|1062>    1      0.860000       9.191690  2
|1063>    2      0.172000       0.008301  2
|1064>   p 2
|1065>    1      0.860000      17.997720  2
|1066>    2      0.172000      -0.032600  2
|1067>   d 2
|1068>    1      1.600000      -9.504310  2
|1069>    2      0.320000      -0.151370  2
|1070>   f 1
|1071>    1      1.000000000    0.000000000 2
|1072> end
|1073> Ti>    4.00000000000   -3.25402271772   -5.92218807425   -7.78540932970
|1074> NewECP
|1075> N_core 0
|1076>   lmax f
|1077>   s 2
|1078>    1      0.860000       9.191690  2
|1079>    2      0.172000       0.008301  2
|1080>   p 2
|1081>    1      0.860000      17.997720  2
|1082>    2      0.172000      -0.032600  2
|1083>   d 2
|1084>    1      1.600000      -9.504310  2
|1085>    2      0.320000      -0.151370  2
|1086>   f 1
|1087>    1      1.000000000    0.000000000 2
|1088> end
|1089> Ti>    4.00000000000   -0.00000306899    7.40273283758   -7.78540932970
|1090> NewECP
|1091> N_core 0
|1092>   lmax f
|1093>   s 2
|1094>    1      0.860000       9.191690  2
|1095>    2      0.172000       0.008301  2
|1096>   p 2
|1097>    1      0.860000      17.997720  2
|1098>    2      0.172000      -0.032600  2
|1099>   d 2
|1100>    1      1.600000      -9.504310  2
|1101>    2      0.320000      -0.151370  2
|1102>   f 1
|1103>    1      1.000000000    0.000000000 2
|1104> end
|1105> Ti>    4.00000000000   -0.00000306899   -7.40273484223   -7.78540932970
|1106> NewECP
|1107> N_core 0
|1108>   lmax f
|1109>   s 2
|1110>    1      0.860000       9.191690  2
|1111>    2      0.172000       0.008301  2
|1112>   p 2
|1113>    1      0.860000      17.997720  2
|1114>    2      0.172000      -0.032600  2
|1115>   d 2
|1116>    1      1.600000      -9.504310  2
|1117>    2      0.320000      -0.151370  2
|1118>   f 1
|1119>    1      1.000000000    0.000000000 2
|1120> end
|1121>   end
|1122> endd                         ****END OF INPUT****

CARTESIAN COORDINATES (ANGSTROEM)
---------------------------------
  O      0.000000    0.000000    0.000000
  Ti     0.000005    1.480551   -1.068926
  Ti     0.000006   -1.480553   -1.068921
  O      0.000004   -0.000001   -2.548403
  O     -2.035259    1.480545   -1.111494
  O      2.035265    1.480545   -1.111492
  O      2.035265   -1.480547   -1.111493
  O     -2.035259   -1.480547   -1.111495
  O     -0.000000    2.961092   -0.000003
  O     -0.000000   -2.961096   -0.000003
  O      0.000004    2.961092   -2.548404
  O      0.000004   -2.961095   -2.548404
  Ti>    3.254023   -0.000001   -1.427162
  Ti>   -3.254016   -0.000001   -1.427162
  Ti>   -0.000052   -0.000001   -4.412884
  Ti>    0.000006    4.441634   -1.068921
  Ti>    0.000005   -4.441636   -1.068926
  Ti>   -3.254017    2.961093   -1.427162
  Ti>    3.254023    2.961093   -1.427162
  Ti>    3.254023   -2.961094   -1.427162
  Ti>   -3.254017   -2.961094   -1.427162
  Ti>   -0.000052    2.961093   -4.412882
  Ti>   -0.000052   -2.961094   -4.412882
  Ti>    3.253952    1.480545   -4.599913
  Ti>    3.253952   -1.480547   -4.599913
  Ti>   -3.254087    1.480545   -4.599913
  Ti>   -3.254087   -1.480547   -4.599913
  Ti>   -6.508034    1.480551   -1.068926
  Ti>    6.508045    1.480551   -1.068926
  Ti>    6.508045   -1.480553   -1.068921
  Ti>   -6.508034   -1.480553   -1.068921
  Ti>   -3.254016    5.922186   -1.427162
  Ti>    3.254023    5.922186   -1.427162
  Ti>    3.254023   -5.922188   -1.427162
  Ti>   -3.254016   -5.922188   -1.427162
  Ti>    3.253952    4.441640   -4.599913
  Ti>    3.253952   -4.441642   -4.599913
  Ti>   -3.254087    4.441640   -4.599913
  Ti>   -3.254087   -4.441642   -4.599913
  Ti>   -0.000052    5.922186   -4.412884
  Ti>   -0.000052   -5.922188   -4.412884
  Ti>    0.000005    7.402739   -1.068926
  Ti>    0.000006   -7.402740   -1.068921
  Ti>    6.507987   -0.000001   -4.412884
  Ti>   -6.508092   -0.000001   -4.412884
  Ti>   -0.000003    1.480546   -7.785409
  Ti>   -0.000003   -1.480548   -7.785409
  Ti>   -6.508034    4.441634   -1.068921
  Ti>    6.508045    4.441634   -1.068921
  Ti>    6.508045   -4.441636   -1.068926
  Ti>   -6.508034   -4.441636   -1.068926
  Ti>    6.507987    2.961093   -4.412882
  Ti>    6.507987   -2.961094   -4.412882
  Ti>   -6.508091    2.961093   -4.412882
  Ti>   -6.508091   -2.961094   -4.412882
  Ti>    3.254017   -0.000001   -7.785409
  Ti>   -3.254023   -0.000001   -7.785409
  Ti>   -3.254023    2.961093   -7.785409
  Ti>    3.254017    2.961093   -7.785409
  Ti>    3.254017   -2.961095   -7.785409
  Ti>   -3.254023   -2.961095   -7.785409
  Ti>   -0.000003    4.441639   -7.785409
  Ti>   -0.000003   -4.441641   -7.785409
  Ti>   -3.254087    7.402732   -4.599913
  Ti>    3.253952    7.402732   -4.599913
  Ti>    3.253952   -7.402734   -4.599913
  Ti>   -3.254087   -7.402734   -4.599913
  Ti>   -3.254017    8.883280   -1.427162
  Ti>    3.254023    8.883280   -1.427162
  Ti>    3.254023   -8.883281   -1.427162
  Ti>   -3.254017   -8.883281   -1.427162
  Ti>   -0.000052    8.883280   -4.412882
  Ti>   -0.000052   -8.883281   -4.412882
  Ti>   -3.254023    5.922186   -7.785409
  Ti>    3.254017    5.922186   -7.785409
  Ti>    3.254017   -5.922188   -7.785409
  Ti>   -3.254023   -5.922188   -7.785409
  Ti>   -0.000003    7.402733   -7.785409
  Ti>   -0.000003   -7.402735   -7.785409

 Total Charge           Charge          ....  -12
 Multiplicity           Mult            ....    1
 Number of Electrons    NEL             ....  128
 Basis Dimension        Dim             ....  756

ORBITAL ENERGIES
----------------

  NO   OCC          E(Eh)            E(eV)
   0   2.0000    -183.334550     -4988.7867
   1   2.0000    -183.334549     -4988.7867
   2   2.0000     -21.542372      -586.1977
   3   2.0000     -21.542371      -586.1977
   4   2.0000     -20.467805      -556.9573
   5   2.0000     -20.467804      -556.9573
   6   2.0000     -20.467753      -556.9559
   7   2.0000     -20.467751      -556.9558
   8   2.0000     -20.451876      -556.5238
   9   2.0000     -20.451875      -556.5238
  10   2.0000     -20.437910      -556.1438
  11   2.0000     -20.378594      -554.5297
  12   2.0000     -20.378594      -554.5297
  13   2.0000     -17.913043      -487.4387
  14   2.0000     -17.913039      -487.4386
  15   2.0000     -17.910693      -487.3747
  16   2.0000     -17.910686      -487.3745
  17   2.0000     -17.908251      -487.3083
  18   2.0000     -17.908230      -487.3077
  19   2.0000      -2.935721       -79.8850
  20   2.0000      -2.934820       -79.8605
  21   2.0000      -1.855566       -50.4925
  22   2.0000      -1.853545       -50.4375
  23   2.0000      -1.852948       -50.4213
  24   2.0000      -1.850258       -50.3481
  25   2.0000      -1.847890       -50.2836
  26   2.0000      -1.841939       -50.1217
  27   2.0000      -1.267376       -34.4871
  28   2.0000      -1.261620       -34.3304
  29   2.0000      -1.256896       -34.2019
  30   2.0000      -1.251580       -34.0572
  31   2.0000      -1.231260       -33.5043
  32   2.0000      -1.230855       -33.4933
  33   2.0000      -1.198014       -32.5996
  34   2.0000      -1.135157       -30.8892
  35   2.0000      -1.133638       -30.8479
  36   2.0000      -0.587646       -15.9907
  37   2.0000      -0.582867       -15.8606
  38   2.0000      -0.573186       -15.5972
  39   2.0000      -0.571783       -15.5590
  40   2.0000      -0.563347       -15.3294
  41   2.0000      -0.558900       -15.2085
  42   2.0000      -0.552841       -15.0436
  43   2.0000      -0.551601       -15.0098
  44   2.0000      -0.533969       -14.5300
  45   2.0000      -0.528257       -14.3746
  46   2.0000      -0.525956       -14.3120
  47   2.0000      -0.525599       -14.3023
  48   2.0000      -0.520748       -14.1703
  49   2.0000      -0.516005       -14.0412
  50   2.0000      -0.511330       -13.9140
  51   2.0000      -0.495557       -13.4848
  52   2.0000      -0.489007       -13.3066
  53   2.0000      -0.474830       -12.9208
  54   2.0000      -0.464998       -12.6532
  55   2.0000      -0.460727       -12.5370
  56   2.0000      -0.430976       -11.7274
  57   2.0000      -0.429437       -11.6856
  58   2.0000      -0.417379       -11.3574
  59   2.0000      -0.390492       -10.6258
  60   2.0000      -0.388561       -10.5733
  61   2.0000      -0.380447       -10.3525
  62   2.0000      -0.378916       -10.3108
  63   2.0000      -0.188197        -5.1211
  64   0.0000       0.123993         3.3740
  65   0.0000       0.136725         3.7205
  66   0.0000       0.139982         3.8091
  67   0.0000       0.155498         4.2313
  68   0.0000       0.156508         4.2588

MULLIKEN ATOMIC CHARGES
-----------------------
   0 O :    0.042773
   1 Ti:    0.736976
   2 Ti:    0.736919
   3 O :   -1.277248
   4 O :   -1.597597
   5 O :   -1.597598
   6 O :   -1.597606
   7 O :   -1.597608
   8 O :   -1.221223
   9 O :   -1.221214
  10 O :   -1.703282
  11 O :   -1.703293
  12 Q :    4.000000
  13 Q :    4.000000
  14 Q :    4.000000
  15 Q :    4.000000
  16 Q :    4.000000
  17 Q :    4.000000
  18 Q :    4.000000
  19 Q :    4.000000
  20 Q :    4.000000
  21 Q :    4.000000
  22 Q :    4.000000
  23 Q :    4.000000
  24 Q :    4.000000
  25 Q :    4.000000
  26 Q :    4.000000
  27 Q :    4.000000
  28 Q :    4.000000
  29 Q :    4.000000
  30 Q :    4.000000
  31 Q :    4.000000
  32 Q :    4.000000
  33 Q :    4.000000
  34 Q :    4.000000
  35 Q :    4.000000
  36 Q :    4.000000
  37 Q :    4.000000
  38 Q :    4.000000
  39 Q :    4.000000
  40 Q :    4.000000
  41 Q :    4.000000
  42 Q :    4.000000
  43 Q :    4.000000
  44 Q :    4.000000
  45 Q :    4.000000
  46 Q :    4.000000
  47 Q :    4.000000
  48 Q :    4.000000
  49 Q :    4.000000
  50 Q :    4.000000
  51 Q :    4.000000
  52 Q :    4.000000
  53 Q :    4.000000
  54 Q :    4.000000
  55 Q :    4.000000
  56 Q :    4.000000
  57 Q :    4.000000
  58 Q :    4.000000
  59 Q :    4.000000
  60 Q :    4.000000
  61 Q :    4.000000
  62 Q :    4.000000
  63 Q :    4.000000
  64 Q :    4.000000
  65 Q :    4.000000
  66 Q :    4.000000
  67 Q :    4.000000
  68 Q :    4.000000
  69 Q :    4.000000
  70 Q :    4.000000
  71 Q :    4.000000
  72 Q :    4.000000
  73 Q :    4.000000
  74 Q :    4.000000
  75 Q :    4.000000
  76 Q :    4.000000
  77 Q :    4.000000
  78 Q :    4.000000
Sum of atomic charges:  256.0000000

LOEWDIN ATOMIC CHARGES
----------------------
   0 O :   -0.576880
   1 Ti:   -1.842579
   2 Ti:   -1.842572
   3 O :   -0.447278
   4 O :   -1.022498
   5 O :   -1.022490
   6 O :   -1.022490
   7 O :   -1.022499
   8 O :   -0.503491
   9 O :   -0.503490
  10 O :   -1.096863
  11 O :   -1.096870
  12 Q :    4.000000
  13 Q :    4.000000
  14 Q :    4.000000
  15 Q :    4.000000
  16 Q :    4.000000
  17 Q :    4.000000
  18 Q :    4.000000
  19 Q :    4.000000
  20 Q :    4.000000
  21 Q :    4.000000
  22 Q :    4.000000
  23 Q :    4.000000
  24 Q :    4.000000
  25 Q :    4.000000
  26 Q :    4.000000
  27 Q :    4.000000
  28 Q :    4.000000
  29 Q :    4.000000
  30 Q :    4.000000
  31 Q :    4.000000
  32 Q :    4.000000
  33 Q :    4.000000
  34 Q :    4.000000
  35 Q :    4.000000
  36 Q :    4.000000
  37 Q :    4.000000
  38 Q :    4.000000
  39 Q :    4.000000
  40 Q :    4.000000
  41 Q :    4.000000
  42 Q :    4.000000
  43 Q :    4.000000
  44 Q :    4.000000
  45 Q :    4.000000
  46 Q :    4.000000
  47 Q :    4.000000
  48 Q :    4.000000
  49 Q :    4.000000
  50 Q :    4.000000
  51 Q :    4.000000
  52 Q :    4.000000
  53 Q :    4.000000
  54 Q :    4.000000
  55 Q :    4.000000
  56 Q :    4.000000
  57 Q :    4.000000
  58 Q :    4.000000
  59 Q :    4.000000
  60 Q :    4.000000
  61 Q :    4.000000
  62 Q :    4.000000
  63 Q :    4.000000
  64 Q :    4.000000
  65 Q :    4.000000
  66 Q :    4.000000
  67 Q :    4.000000
  68 Q :    4.000000
  69 Q :    4.000000
  70 Q :    4.000000
  71 Q :    4.000000
  72 Q :    4.000000
  73 Q :    4.000000
  74 Q :    4.000000
  75 Q :    4.000000
  76 Q :    4.000000
  77 Q :    4.000000
  78 Q :    4.000000

  Mayer bond orders larger than 0.100000
B(  1-Ti,  2-Ti) :   0.1311 B(  1-Ti,  3-O ) :   0.6786 B(  1-Ti,  4-O ) :   1.1569
B(  1-Ti,  5-O ) :   1.1569 B(  1-Ti,  6-O ) :  -0.4102 B(  1-Ti,  7-O ) :  -0.4102
B(  1-Ti,  8-O ) :   1.1439 B(  1-Ti,  9-O ) :   0.2516 B(  1-Ti, 10-O ) :   0.2605
B(  1-Ti, 11-O ) :   0.2753 B(  2-Ti,  3-O ) :   0.6786 B(  2-Ti,  4-O ) :  -0.4102
B(  2-Ti,  5-O ) :  -0.4102 B(  2-Ti,  6-O ) :   1.1569 B(  2-Ti,  7-O ) :   1.1569
B(  2-Ti,  8-O ) :   0.2515 B(  2-Ti,  9-O ) :   1.1439 B(  2-Ti, 10-O ) :   0.2754
B(  2-Ti, 11-O ) :   0.2605

E(0)                                       ...  -5011.922579407
E(0)                                       ...  -5011.922579407
E(CORR)(strong-pairs)                      ...     -2.703516886
E(CORR)(weak-pairs)                        ...     -0.013999008
E(CORR)(corrected)                         ...     -2.717515894
E(TOT)                                     ...  -5014.640095301
E(CCSD(T))                                 ...  -5014.764748375
FINAL SINGLE POINT ENERGY     -5014.764748374579

DIPOLE MOMENT
-------------
                                X             Y             Z
Electronic contribution:      0.00011       0.00002       7.70682
Nuclear contribution   :     -0.01273       0.00015   -1416.82440
                        -----------------------------------------
Total Dipole Moment    :     -0.01262       0.00016   -1409.11758
                        -----------------------------------------
Magnitude (a.u.)       :   1409.11758
Magnitude (Debye)      :   3581.69226

Rotational constants in cm-1:     0.042112     0.016107     0.014329
Rotational constants in MHz :  1262.475280   482.869400   429.565796

                             ****ORCA TERMINATED NORMALLY****
TOTAL RUN TIME: 0 days 0 hours 53 minutes 41 seconds 287 msec
