                         Program Version 5.0.1 -  RELEASE  -
|  1> ! NormalSCF SlowConv DIIS
|  2> %maxcore 18000
|  3> %pal
|  4>   nprocs 24
|  5> end
|  6> %pointcharges "orca.bq"
|  7> %method
|  8>   Method DFT
|  9>   Functional PBE
| 10>   RI on
| 11>   RunTyp Energy
| 12> end
| 13> %basis
| 14>   Basis "def2-SVP"
| 15>   Aux "def2/J"
| 16> end
| 17> %scf
| 18>   HFTyp rks
| 19>   Guess Hueckel
| 20>   AutoStart True
| 21>   SCFMode Direct
| 22>   MaxIter 1000
| 23>   sthresh 1e-6
| 24>   AutoTRAHIter 100
| 25> end
| 26> %coords
| 27>   CTyp xyz
| 28>   Mult 1
| 29>   Units angs
| 30>   Charge -12
| 31>   coords
| 32> O                       0.00000000000    0.00000000000    0.00000000000
| 33> Ti                      0.00000536997    1.48055149700   -1.06892606631
| 34> Ti                      0.00000552101   -1.48055312386   -1.06892138720
| 35> O                       0.00000442396   -0.00000111986   -2.54840301833
| 36> O                      -2.03525914147    1.48054518365   -1.11149385695
| 37> O                       2.03526534753    1.48054527935   -1.11149163807
| 38> O                       2.03526471018   -1.48054700097   -1.11149295951
| 39> O                      -2.03525907462   -1.48054722666   -1.11149503385
| 40> O                      -0.00000037752    2.96109155033   -0.00000271770
| 41> O                      -0.00000037752   -2.96109552160   -0.00000271770
| 42> O                       0.00000449994    2.96109199200   -2.54840438198
| 43> O                       0.00000449994   -2.96109507993   -2.54840438198
| 44> Ti>    4.00000000000    3.25402319191   -0.00000112036   -1.42716202606
| 45> NewECP
| 46> N_core 0
| 47>   lmax f
| 48>   s 2
| 49>    1      0.860000       9.191690  2
| 50>    2      0.172000       0.008301  2
| 51>   p 2
| 52>    1      0.860000      17.997720  2
| 53>    2      0.172000      -0.032600  2
| 54>   d 2
| 55>    1      1.600000      -9.504310  2
| 56>    2      0.320000      -0.151370  2
| 57>   f 1
| 58>    1      1.000000000    0.000000000 2
| 59> end
| 60> Ti>    4.00000000000   -3.25401610555   -0.00000112036   -1.42716202606
| 61> NewECP
| 62> N_core 0
| 63>   lmax f
| 64>   s 2
| 65>    1      0.860000       9.191690  2
| 66>    2      0.172000       0.008301  2
| 67>   p 2
| 68>    1      0.860000      17.997720  2
| 69>    2      0.172000      -0.032600  2
| 70>   d 2
| 71>    1      1.600000      -9.504310  2
| 72>    2      0.320000      -0.151370  2
| 73>   f 1
| 74>    1      1.000000000    0.000000000 2
| 75> end
| 76> Ti>    4.00000000000   -0.00005220374   -0.00000071014   -4.41288396045
| 77> NewECP
| 78> N_core 0
| 79>   lmax f
| 80>   s 2
| 81>    1      0.860000       9.191690  2
| 82>    2      0.172000       0.008301  2
| 83>   p 2
| 84>    1      0.860000      17.997720  2
| 85>    2      0.172000      -0.032600  2
| 86>   d 2
| 87>    1      1.600000      -9.504310  2
| 88>    2      0.320000      -0.151370  2
| 89>   f 1
| 90>    1      1.000000000    0.000000000 2
| 91> end
| 92> Ti>    4.00000000000    0.00000552101    4.44163394806   -1.06892138720
| 93> NewECP
| 94> N_core 0
| 95>   lmax f
| 96>   s 2
| 97>    1      0.860000       9.191690  2
| 98>    2      0.172000       0.008301  2
| 99>   p 2
|100>    1      0.860000      17.997720  2
|101>    2      0.172000      -0.032600  2
|102>   d 2
|103>    1      1.600000      -9.504310  2
|104>    2      0.320000      -0.151370  2
|105>   f 1
|106>    1      1.000000000    0.000000000 2
|107> end
|108> Ti>    4.00000000000    0.00000536997   -4.44163557493   -1.06892606631
|109> NewECP
|110> N_core 0
|111>   lmax f
|112>   s 2
|113>    1      0.860000       9.191690  2
|114>    2      0.172000       0.008301  2
|115>   p 2
|116>    1      0.860000      17.997720  2
|117>    2      0.172000      -0.032600  2
|118>   d 2
|119>    1      1.600000      -9.504310  2
|120>    2      0.320000      -0.151370  2
|121>   f 1
|122>    1      1.000000000    0.000000000 2
|123> end
|124> Ti>    4.00000000000   -3.25401668289    2.96109302555   -1.42716235830
|125> NewECP
|126> N_core 0
|127>   lmax f
|128>   s 2
|129>    1      0.860000       9.191690  2
|130>    2      0.172000       0.008301  2
|131>   p 2
|132>    1      0.860000      17.997720  2
|133>    2      0.172000      -0.032600  2
|134>   d 2
|135>    1      1.600000      -9.504310  2
|136>    2      0.320000      -0.151370  2
|137>   f 1
|138>    1      1.000000000    0.000000000 2
|139> end
|140> Ti>    4.00000000000    3.25402261457    2.96109302555   -1.42716235830
|141> NewECP
|142> N_core 0
|143>   lmax f
|144>   s 2
|145>    1      0.860000       9.191690  2
|146>    2      0.172000       0.008301  2
|147>   p 2
|148>    1      0.860000      17.997720  2
|149>    2      0.172000      -0.032600  2
|150>   d 2
|151>    1      1.600000      -9.504310  2
|152>    2      0.320000      -0.151370  2
|153>   f 1
|154>    1      1.000000000    0.000000000 2
|155> end
|156> Ti>    4.00000000000    3.25402261457   -2.96109404638   -1.42716235830
|157> NewECP
|158> N_core 0
|159>   lmax f
|160>   s 2
|161>    1      0.860000       9.191690  2
|162>    2      0.172000       0.008301  2
|163>   p 2
|164>    1      0.860000      17.997720  2
|165>    2      0.172000      -0.032600  2
|166>   d 2
|167>    1      1.600000      -9.504310  2
|168>    2      0.320000      -0.151370  2
|169>   f 1
|170>    1      1.000000000    0.000000000 2
|171> end
|172> Ti>    4.00000000000   -3.25401668289   -2.96109404638   -1.42716235830
|173> NewECP
|174> N_core 0
|175>   lmax f
|176>   s 2
|177>    1      0.860000       9.191690  2
|178>    2      0.172000       0.008301  2
|179>   p 2
|180>    1      0.860000      17.997720  2
|181>    2      0.172000      -0.032600  2
|182>   d 2
|183>    1      1.600000      -9.504310  2
|184>    2      0.320000      -0.151370  2
|185>   f 1
|186>    1      1.000000000    0.000000000 2
|187> end
|188> Ti>    4.00000000000   -0.00005206359    2.96109301637   -4.41288206312
|189> NewECP
|190> N_core 0
|191>   lmax f
|192>   s 2
|193>    1      0.860000       9.191690  2
|194>    2      0.172000       0.008301  2
|195>   p 2
|196>    1      0.860000      17.997720  2
|197>    2      0.172000      -0.032600  2
|198>   d 2
|199>    1      1.600000      -9.504310  2
|200>    2      0.320000      -0.151370  2
|201>   f 1
|202>    1      1.000000000    0.000000000 2
|203> end
|204> Ti>    4.00000000000   -0.00005206359   -2.96109405556   -4.41288206312
|205> NewECP
|206> N_core 0
|207>   lmax f
|208>   s 2
|209>    1      0.860000       9.191690  2
|210>    2      0.172000       0.008301  2
|211>   p 2
|212>    1      0.860000      17.997720  2
|213>    2      0.172000      -0.032600  2
|214>   d 2
|215>    1      1.600000      -9.504310  2
|216>    2      0.320000      -0.151370  2
|217>   f 1
|218>    1      1.000000000    0.000000000 2
|219> end
|220> Ti>    4.00000000000    3.25395215162    1.48054533538   -4.59991327640
|221> NewECP
|222> N_core 0
|223>   lmax f
|224>   s 2
|225>    1      0.860000       9.191690  2
|226>    2      0.172000       0.008301  2
|227>   p 2
|228>    1      0.860000      17.997720  2
|229>    2      0.172000      -0.032600  2
|230>   d 2
|231>    1      1.600000      -9.504310  2
|232>    2      0.320000      -0.151370  2
|233>   f 1
|234>    1      1.000000000    0.000000000 2
|235> end
|236> Ti>    4.00000000000    3.25395195581   -1.48054722422   -4.59991284715
|237> NewECP
|238> N_core 0
|239>   lmax f
|240>   s 2
|241>    1      0.860000       9.191690  2
|242>    2      0.172000       0.008301  2
|243>   p 2
|244>    1      0.860000      17.997720  2
|245>    2      0.172000      -0.032600  2
|246>   d 2
|247>    1      1.600000      -9.504310  2
|248>    2      0.320000      -0.151370  2
|249>   f 1
|250>    1      1.000000000    0.000000000 2
|251> end
|252> Ti>    4.00000000000   -3.25408714585    1.48054533538   -4.59991327640
|253> NewECP
|254> N_core 0
|255>   lmax f
|256>   s 2
|257>    1      0.860000       9.191690  2
|258>    2      0.172000       0.008301  2
|259>   p 2
|260>    1      0.860000      17.997720  2
|261>    2      0.172000      -0.032600  2
|262>   d 2
|263>    1      1.600000      -9.504310  2
|264>    2      0.320000      -0.151370  2
|265>   f 1
|266>    1      1.000000000    0.000000000 2
|267> end
|268> Ti>    4.00000000000   -3.25408734165   -1.48054722422   -4.59991284715
|269> NewECP
|270> N_core 0
|271>   lmax f
|272>   s 2
|273>    1      0.860000       9.191690  2
|274>    2      0.172000       0.008301  2
|275>   p 2
|276>    1      0.860000      17.997720  2
|277>    2      0.172000      -0.032600  2
|278>   d 2
|279>    1      1.600000      -9.504310  2
|280>    2      0.320000      -0.151370  2
|281>   f 1
|282>    1      1.000000000    0.000000000 2
|283> end
|284> Ti>    4.00000000000   -6.50803392749    1.48055149700   -1.06892606631
|285> NewECP
|286> N_core 0
|287>   lmax f
|288>   s 2
|289>    1      0.860000       9.191690  2
|290>    2      0.172000       0.008301  2
|291>   p 2
|292>    1      0.860000      17.997720  2
|293>    2      0.172000      -0.032600  2
|294>   d 2
|295>    1      1.600000      -9.504310  2
|296>    2      0.320000      -0.151370  2
|297>   f 1
|298>    1      1.000000000    0.000000000 2
|299> end
|300> Ti>    4.00000000000    6.50804466744    1.48055149700   -1.06892606631
|301> NewECP
|302> N_core 0
|303>   lmax f
|304>   s 2
|305>    1      0.860000       9.191690  2
|306>    2      0.172000       0.008301  2
|307>   p 2
|308>    1      0.860000      17.997720  2
|309>    2      0.172000      -0.032600  2
|310>   d 2
|311>    1      1.600000      -9.504310  2
|312>    2      0.320000      -0.151370  2
|313>   f 1
|314>    1      1.000000000    0.000000000 2
|315> end
|316> Ti>    4.00000000000    6.50804481848   -1.48055312386   -1.06892138720
|317> NewECP
|318> N_core 0
|319>   lmax f
|320>   s 2
|321>    1      0.860000       9.191690  2
|322>    2      0.172000       0.008301  2
|323>   p 2
|324>    1      0.860000      17.997720  2
|325>    2      0.172000      -0.032600  2
|326>   d 2
|327>    1      1.600000      -9.504310  2
|328>    2      0.320000      -0.151370  2
|329>   f 1
|330>    1      1.000000000    0.000000000 2
|331> end
|332> Ti>    4.00000000000   -6.50803377645   -1.48055312386   -1.06892138720
|333> NewECP
|334> N_core 0
|335>   lmax f
|336>   s 2
|337>    1      0.860000       9.191690  2
|338>    2      0.172000       0.008301  2
|339>   p 2
|340>    1      0.860000      17.997720  2
|341>    2      0.172000      -0.032600  2
|342>   d 2
|343>    1      1.600000      -9.504310  2
|344>    2      0.320000      -0.151370  2
|345>   f 1
|346>    1      1.000000000    0.000000000 2
|347> end
|348> Ti>    4.00000000000   -3.25401610555    5.92218595157   -1.42716202606
|349> NewECP
|350> N_core 0
|351>   lmax f
|352>   s 2
|353>    1      0.860000       9.191690  2
|354>    2      0.172000       0.008301  2
|355>   p 2
|356>    1      0.860000      17.997720  2
|357>    2      0.172000      -0.032600  2
|358>   d 2
|359>    1      1.600000      -9.504310  2
|360>    2      0.320000      -0.151370  2
|361>   f 1
|362>    1      1.000000000    0.000000000 2
|363> end
|364> Ti>    4.00000000000    3.25402319191    5.92218595157   -1.42716202606
|365> NewECP
|366> N_core 0
|367>   lmax f
|368>   s 2
|369>    1      0.860000       9.191690  2
|370>    2      0.172000       0.008301  2
|371>   p 2
|372>    1      0.860000      17.997720  2
|373>    2      0.172000      -0.032600  2
|374>   d 2
|375>    1      1.600000      -9.504310  2
|376>    2      0.320000      -0.151370  2
|377>   f 1
|378>    1      1.000000000    0.000000000 2
|379> end
|380> Ti>    4.00000000000    3.25402319191   -5.92218819228   -1.42716202606
|381> NewECP
|382> N_core 0
|383>   lmax f
|384>   s 2
|385>    1      0.860000       9.191690  2
|386>    2      0.172000       0.008301  2
|387>   p 2
|388>    1      0.860000      17.997720  2
|389>    2      0.172000      -0.032600  2
|390>   d 2
|391>    1      1.600000      -9.504310  2
|392>    2      0.320000      -0.151370  2
|393>   f 1
|394>    1      1.000000000    0.000000000 2
|395> end
|396> Ti>    4.00000000000   -3.25401610555   -5.92218819228   -1.42716202606
|397> NewECP
|398> N_core 0
|399>   lmax f
|400>   s 2
|718> N_core 0
|719>   lmax f
|720>   s 2
|721>    1      0.860000       9.191690  2
|722>    2      0.172000       0.008301  2
|723>   p 2
|724>    1      0.860000      17.997720  2
|725>    2      0.172000      -0.032600  2
|726>   d 2
|727>    1      1.600000      -9.504310  2
|728>    2      0.320000      -0.151370  2
|729>   f 1
|730>    1      1.000000000    0.000000000 2
|731> end
|732> Ti>    4.00000000000    3.25401657974   -0.00000100232   -7.78540932970
|733> NewECP
|734> N_core 0
|735>   lmax f
|736>   s 2
|737>    1      0.860000       9.191690  2
|738>    2      0.172000       0.008301  2
|739>   p 2
|740>    1      0.860000      17.997720  2
|741>    2      0.172000      -0.032600  2
|742>   d 2
|743>    1      1.600000      -9.504310  2
|744>    2      0.320000      -0.151370  2
|745>   f 1
|746>    1      1.000000000    0.000000000 2
|747> end
|748> Ti>    4.00000000000   -3.25402271772   -0.00000100232   -7.78540932970
|749> NewECP
|750> N_core 0
|751>   lmax f
|752>   s 2
|753>    1      0.860000       9.191690  2
|754>    2      0.172000       0.008301  2
|755>   p 2
|756>    1      0.860000      17.997720  2
|757>    2      0.172000      -0.032600  2
|758>   d 2
|759>    1      1.600000      -9.504310  2
|760>    2      0.320000      -0.151370  2
|761>   f 1
|762>    1      1.000000000    0.000000000 2
|763> end
|764> Ti>    4.00000000000   -3.25402271772    2.96109253364   -7.78540932970
|765> NewECP
|766> N_core 0
|767>   lmax f
|768>   s 2
|769>    1      0.860000       9.191690  2
|770>    2      0.172000       0.008301  2
|771>   p 2
|772>    1      0.860000      17.997720  2
|773>    2      0.172000      -0.032600  2
|774>   d 2
|775>    1      1.600000      -9.504310  2
|776>    2      0.320000      -0.151370  2
|777>   f 1
|778>    1      1.000000000    0.000000000 2
|779> end
|780> Ti>    4.00000000000    3.25401657974    2.96109253364   -7.78540932970
|781> NewECP
|782> N_core 0
|783>   lmax f
|784>   s 2
|785>    1      0.860000       9.191690  2
|786>    2      0.172000       0.008301  2
|787>   p 2
|788>    1      0.860000      17.997720  2
|789>    2      0.172000      -0.032600  2
|790>   d 2
|791>    1      1.600000      -9.504310  2
|792>    2      0.320000      -0.151370  2
|793>   f 1
|794>    1      1.000000000    0.000000000 2
|795> end
|796> Ti>    4.00000000000    3.25401657974   -2.96109453828   -7.78540932970
|797> NewECP
|798> N_core 0
|799>   lmax f
|800>   s 2
|801>    1      0.860000       9.191690  2
|802>    2      0.172000       0.008301  2
|803>   p 2
|804>    1      0.860000      17.997720  2
|805>    2      0.172000      -0.032600  2
|806>   d 2
|807>    1      1.600000      -9.504310  2
|808>    2      0.320000      -0.151370  2
|809>   f 1
|810>    1      1.000000000    0.000000000 2
|811> end
|812> Ti>    4.00000000000   -3.25402271772   -2.96109453828   -7.78540932970
|813> NewECP
|814> N_core 0
|815>   lmax f
|816>   s 2
|817>    1      0.860000       9.191690  2
|818>    2      0.172000       0.008301  2
|819>   p 2
|820>    1      0.860000      17.997720  2
|821>    2      0.172000      -0.032600  2
|822>   d 2
|823>    1      1.600000      -9.504310  2
|824>    2      0.320000      -0.151370  2
|825>   f 1
|826>    1      1.000000000    0.000000000 2
|827> end
|828> Ti>    4.00000000000   -0.00000306899    4.44163930162   -7.78540932970
|829> NewECP
|830> N_core 0
|831>   lmax f
|832>   s 2
|833>    1      0.860000       9.191690  2
|834>    2      0.172000       0.008301  2
|835>   p 2
|836>    1      0.860000      17.997720  2
|837>    2      0.172000      -0.032600  2
|838>   d 2
|839>    1      1.600000      -9.504310  2
|840>    2      0.320000      -0.151370  2
|841>   f 1
|842>    1      1.000000000    0.000000000 2
|843> end
|844> Ti>    4.00000000000   -0.00000306899   -4.44164130627   -7.78540932970
|845> NewECP
|846> N_core 0
|847>   lmax f
|848>   s 2
|849>    1      0.860000       9.191690  2
|850>    2      0.172000       0.008301  2
|851>   p 2
|852>    1      0.860000      17.997720  2
|853>    2      0.172000      -0.032600  2
|854>   d 2
|855>    1      1.600000      -9.504310  2
|856>    2      0.320000      -0.151370  2
|857>   f 1
|858>    1      1.000000000    0.000000000 2
|859> end
|860> Ti>    4.00000000000   -3.25408714585    7.40273240730   -4.59991327640
|861> NewECP
|862> N_core 0
|863>   lmax f
|864>   s 2
|865>    1      0.860000       9.191690  2
|866>    2      0.172000       0.008301  2
|867>   p 2
|868>    1      0.860000      17.997720  2
|869>    2      0.172000      -0.032600  2
|870>   d 2
|871>    1      1.600000      -9.504310  2
|872>    2      0.320000      -0.151370  2
|873>   f 1
|874>    1      1.000000000    0.000000000 2
|875> end
|876> Ti>    4.00000000000    3.25395215162    7.40273240730   -4.59991327640
|877> NewECP
|878> N_core 0
|879>   lmax f
|880>   s 2
|881>    1      0.860000       9.191690  2
|882>    2      0.172000       0.008301  2
|883>   p 2
|884>    1      0.860000      17.997720  2
|885>    2      0.172000      -0.032600  2
|886>   d 2
|887>    1      1.600000      -9.504310  2
|888>    2      0.320000      -0.151370  2
|889>   f 1
|890>    1      1.000000000    0.000000000 2
|891> end
|892> Ti>    4.00000000000    3.25395195581   -7.40273429615   -4.59991284715
|893> NewECP
|894> N_core 0
|895>   lmax f
|896>   s 2
|897>    1      0.860000       9.191690  2
|898>    2      0.172000       0.008301  2
|899>   p 2
|900>    1      0.860000      17.997720  2
|901>    2      0.172000      -0.032600  2
|902>   d 2
|903>    1      1.600000      -9.504310  2
|904>    2      0.320000      -0.151370  2
|905>   f 1
|906>    1      1.000000000    0.000000000 2
|907> end
|908> Ti>    4.00000000000   -3.25408734165   -7.40273429615   -4.59991284715
|909> NewECP
|910> N_core 0
|911>   lmax f
|912>   s 2
|913>    1      0.860000       9.191690  2
|914>    2      0.172000       0.008301  2
|915>   p 2
|916>    1      0.860000      17.997720  2
|917>    2      0.172000      -0.032600  2
|918>   d 2
|919>    1      1.600000      -9.504310  2
|920>    2      0.320000      -0.151370  2
|921>   f 1
|922>    1      1.000000000    0.000000000 2
|923> end
|924> Ti>    4.00000000000   -3.25401668289    8.88328009748   -1.42716235830
|925> NewECP
|926> N_core 0
|927>   lmax f
|928>   s 2
|929>    1      0.860000       9.191690  2
|930>    2      0.172000       0.008301  2
|931>   p 2
|932>    1      0.860000      17.997720  2
|933>    2      0.172000      -0.032600  2
|934>   d 2
|935>    1      1.600000      -9.504310  2
|936>    2      0.320000      -0.151370  2
|937>   f 1
|938>    1      1.000000000    0.000000000 2
|939> end
|940> Ti>    4.00000000000    3.25402261457    8.88328009748   -1.42716235830
|941> NewECP
|942> N_core 0
|943>   lmax f
|944>   s 2
|945>    1      0.860000       9.191690  2
|946>    2      0.172000       0.008301  2
|947>   p 2
|948>    1      0.860000      17.997720  2
|949>    2      0.172000      -0.032600  2
|950>   d 2
|951>    1      1.600000      -9.504310  2
|952>    2      0.320000      -0.151370  2
|953>   f 1
|954>    1      1.000000000    0.000000000 2
|955> end
|956> Ti>    4.00000000000    3.25402261457   -8.88328111830   -1.42716235830
|957> NewECP
|958> N_core 0
|959>   lmax f
|960>   s 2
|961>    1      0.860000       9.191690  2
|962>    2      0.172000       0.008301  2
|963>   p 2
|964>    1      0.860000      17.997720  2
|965>    2      0.172000      -0.032600  2
|966>   d 2
|967>    1      1.600000      -9.504310  2
|968>    2      0.320000      -0.151370  2
|969>   f 1
|970>    1      1.000000000    0.000000000 2
|971> end
|972> Ti>    4.00000000000   -3.25401668289   -8.88328111830   -1.42716235830
|973> NewECP
|974> N_core 0
|975>   lmax f
|976>   s 2
|977>    1      0.860000       9.191690  2
|978>    2      0.172000       0.008301  2
|979>   p 2
|980>    1      0.860000      17.997720  2
|981>    2      0.172000      -0.032600  2
|982>   d 2
|983>    1      1.600000      -9.504310  2
|984>    2      0.320000      -0.151370  2
|985>   f 1
|986>    1      1.000000000    0.000000000 2
|987> end
|988> Ti>    4.00000000000   -0.00005206359    8.88328008829   -4.41288206312
|989> NewECP
|990> N_core 0
|991>   lmax f
|992>   s 2
|993>    1      0.860000       9.191690  2
|994>    2      0.172000       0.008301  2
|995>   p 2
|996>    1      0.860000      17.997720  2
|997>    2      0.172000      -0.032600  2
|998>   d 2
|999>    1      1.600000      -9.504310  2
|1000>    2      0.320000      -0.151370  2
|1001>   f 1
|1002>    1      1.000000000    0.000000000 2
|1003> end
|1004> Ti>    4.00000000000   -0.00005206359   -8.88328112748   -4.41288206312
|1005> NewECP
|1006> N_core 0
|1007>   lmax f
|1008>   s 2
|1009>    1      0.860000       9.191690  2
|1010>    2      0.172000       0.008301  2
|1011>   p 2
|1012>    1      0.860000      17.997720  2
|1013>    2      0.172000      -0.032600  2
|1014>   d 2
|1015>    1      1.600000      -9.504310  2
|1016>    2      0.320000      -0.151370  2
|1017>   f 1
|1018>    1      1.000000000    0.000000000 2
|1019> end
|1020> Ti>    4.00000000000   -3.25402271772    5.92218606960   -7.78540932970
|1021> NewECP
|1022> N_core 0
|1023>   lmax f
|1024>   s 2
|1025>    1      0.860000       9.191690  2
|1026>    2      0.172000       0.008301  2
|1027>   p 2
|1028>    1      0.860000      17.997720  2
|1029>    2      0.172000      -0.032600  2
|1030>   d 2
|1031>    1      1.600000      -9.504310  2
|1032>    2      0.320000      -0.151370  2
|1033>   f 1
|1034>    1      1.000000000    0.000000000 2
|1035> end
|1036> Ti>    4.00000000000    3.25401657974    5.92218606960   -7.78540932970
|1037> NewECP
|1038> N_core 0
|1039>   lmax f
|1040>   s 2
|1041>    1      0.860000       9.191690  2
|1042>    2      0.172000       0.008301  2
|1043>   p 2
|1044>    1      0.860000      17.997720  2
|1045>    2      0.172000      -0.032600  2
|1046>   d 2
|1047>    1      1.600000      -9.504310  2
|1048>    2      0.320000      -0.151370  2
|1049>   f 1
|1050>    1      1.000000000    0.000000000 2
|1051> end
|1052> Ti>    4.00000000000    3.25401657974   -5.92218807425   -7.78540932970
|1053> NewECP
|1054> N_core 0
|1055>   lmax f
|1056>   s 2
|1057>    1      0.860000       9.191690  2
|1058>    2      0.172000       0.008301  2
|1059>   p 2
|1060>    1      0.860000      17.997720  2
|1061>    2      0.172000      -0.032600  2
|1062>   d 2
|1063>    1      1.600000      -9.504310  2
|1064>    2      0.320000      -0.151370  2
|1065>   f 1
|1066>    1      1.000000000    0.000000000 2
|1067> end
|1068> Ti>    4.00000000000   -3.25402271772   -5.92218807425   -7.78540932970
|1069> NewECP
|1070> N_core 0
|1071>   lmax f
|1072>   s 2
|1073>    1      0.860000       9.191690  2
|1074>    2      0.172000       0.008301  2
|1075>   p 2
|1076>    1      0.860000      17.997720  2
|1077>    2      0.172000      -0.032600  2
|1078>   d 2
|1079>    1      1.600000      -9.504310  2
|1080>    2      0.320000      -0.151370  2
|1081>   f 1
|1082>    1      1.000000000    0.000000000 2
|1083> end
|1084> Ti>    4.00000000000   -0.00000306899    7.40273283758   -7.78540932970
|1085> NewECP
|1086> N_core 0
|1087>   lmax f
|1088>   s 2
|1089>    1      0.860000       9.191690  2
|1090>    2      0.172000       0.008301  2
|1091>   p 2
|1092>    1      0.860000      17.997720  2
|1093>    2      0.172000      -0.032600  2
|1094>   d 2
|1095>    1      1.600000      -9.504310  2
|1096>    2      0.320000      -0.151370  2
|1097>   f 1
|1098>    1      1.000000000    0.000000000 2
|1099> end
|1100> Ti>    4.00000000000   -0.00000306899   -7.40273484223   -7.78540932970
|1101> NewECP
|1102> N_core 0
|1103>   lmax f
|1104>   s 2
|1105>    1      0.860000       9.191690  2
|1106>    2      0.172000       0.008301  2
|1107>   p 2
|1108>    1      0.860000      17.997720  2
|1109>    2      0.172000      -0.032600  2
|1110>   d 2
|1111>    1      1.600000      -9.504310  2
|1112>    2      0.320000      -0.151370  2
|1113>   f 1
|1114>    1      1.000000000    0.000000000 2
|1115> end
|1116>   end
|1117> endd                         ****END OF INPUT****

CARTESIAN COORDINATES (ANGSTROEM)
---------------------------------
  O      0.000000    0.000000    0.000000
  Ti     0.000005    1.480551   -1.068926
  Ti     0.000006   -1.480553   -1.068921
  O      0.000004   -0.000001   -2.548403
  O     -2.035259    1.480545   -1.111494
  O      2.035265    1.480545   -1.111492
  O      2.035265   -1.480547   -1.111493
  O     -2.035259   -1.480547   -1.111495
  O     -0.000000    2.961092   -0.000003
  O     -0.000000   -2.961096   -0.000003
  O      0.000004    2.961092   -2.548404
  O      0.000004   -2.961095   -2.548404
  Ti>    3.254023   -0.000001   -1.427162
  Ti>   -3.254016   -0.000001   -1.427162
  Ti>   -0.000052   -0.000001   -4.412884
  Ti>    0.000006    4.441634   -1.068921
  Ti>    0.000005   -4.441636   -1.068926
  Ti>   -3.254017    2.961093   -1.427162
  Ti>    3.254023    2.961093   -1.427162
  Ti>    3.254023   -2.961094   -1.427162
  Ti>   -3.254017   -2.961094   -1.427162
  Ti>   -0.000052    2.961093   -4.412882
  Ti>   -0.000052   -2.961094   -4.412882
  Ti>    3.253952    1.480545   -4.599913
  Ti>    3.253952   -1.480547   -4.599913
  Ti>   -3.254087    1.480545   -4.599913
  Ti>   -3.254087   -1.480547   -4.599913
  Ti>   -6.508034    1.480551   -1.068926
  Ti>    6.508045    1.480551   -1.068926
  Ti>    6.508045   -1.480553   -1.068921
  Ti>   -6.508034   -1.480553   -1.068921
  Ti>   -3.254016    5.922186   -1.427162
  Ti>    3.254023    5.922186   -1.427162
  Ti>    3.254023   -5.922188   -1.427162
  Ti>   -3.254016   -5.922188   -1.427162
  Ti>    3.253952    4.441640   -4.599913
  Ti>    3.253952   -4.441642   -4.599913
  Ti>   -3.254087    4.441640   -4.599913
  Ti>   -3.254087   -4.441642   -4.599913
  Ti>   -0.000052    5.922186   -4.412884
  Ti>   -0.000052   -5.922188   -4.412884
  Ti>    0.000005    7.402739   -1.068926
  Ti>    0.000006   -7.402740   -1.068921
  Ti>    6.507987   -0.000001   -4.412884
  Ti>   -6.508092   -0.000001   -4.412884
  Ti>   -0.000003    1.480546   -7.785409
  Ti>   -0.000003   -1.480548   -7.785409
  Ti>   -6.508034    4.441634   -1.068921
  Ti>    6.508045    4.441634   -1.068921
  Ti>    6.508045   -4.441636   -1.068926
  Ti>   -6.508034   -4.441636   -1.068926
  Ti>    6.507987    2.961093   -4.412882
  Ti>    6.507987   -2.961094   -4.412882
  Ti>   -6.508091    2.961093   -4.412882
  Ti>   -6.508091   -2.961094   -4.412882
  Ti>    3.254017   -0.000001   -7.785409
  Ti>   -3.254023   -0.000001   -7.785409
  Ti>   -3.254023    2.961093   -7.785409
  Ti>    3.254017    2.961093   -7.785409
  Ti>    3.254017   -2.961095   -7.785409
  Ti>   -3.254023   -2.961095   -7.785409
  Ti>   -0.000003    4.441639   -7.785409
  Ti>   -0.000003   -4.441641   -7.785409
  Ti>   -3.254087    7.402732   -4.599913
  Ti>    3.253952    7.402732   -4.599913
  Ti>    3.253952   -7.402734   -4.599913
  Ti>   -3.254087   -7.402734   -4.599913
  Ti>   -3.254017    8.883280   -1.427162
  Ti>    3.254023    8.883280   -1.427162
  Ti>    3.254023   -8.883281   -1.427162
  Ti>   -3.254017   -8.883281   -1.427162
  Ti>   -0.000052    8.883280   -4.412882
  Ti>   -0.000052   -8.883281   -4.412882
  Ti>   -3.254023    5.922186   -7.785409
  Ti>    3.254017    5.922186   -7.785409
  Ti>    3.254017   -5.922188   -7.785409
  Ti>   -3.254023   -5.922188   -7.785409
  Ti>   -0.000003    7.402733   -7.785409
  Ti>   -0.000003   -7.402735   -7.785409

 Total Charge           Charge          ....  -12
 Multiplicity           Mult            ....    1
 Number of Electrons    NEL             ....  136
 Basis Dimension        Dim             ....  202

ORBITAL ENERGIES
----------------

  NO   OCC          E(Eh)            E(eV)
   0   2.0000    -177.620834     -4833.3086
   1   2.0000    -177.620794     -4833.3075
   2   2.0000     -19.416989      -528.3631
   3   2.0000     -19.416915      -528.3611
   4   2.0000     -18.614004      -506.5128
   5   2.0000     -18.613993      -506.5125
   6   2.0000     -18.613982      -506.5122
   7   2.0000     -18.613962      -506.5117
   8   2.0000     -18.613851      -506.5086
   9   2.0000     -18.613806      -506.5074
  10   2.0000     -18.609383      -506.3871
  11   2.0000     -18.589533      -505.8469
  12   2.0000     -18.554083      -504.8823
  13   2.0000     -18.554068      -504.8819
  14   2.0000     -16.211401      -441.1346
  15   2.0000     -16.211365      -441.1337
  16   2.0000     -16.210032      -441.0974
  17   2.0000     -16.210006      -441.0967
  18   2.0000     -16.207785      -441.0363
  19   2.0000     -16.207768      -441.0358
  20   2.0000      -2.135974       -58.1228
  21   2.0000      -2.135157       -58.1006
  22   2.0000      -1.299445       -35.3597
  23   2.0000      -1.292426       -35.1687
  24   2.0000      -1.291770       -35.1509
  25   2.0000      -1.291061       -35.1316
  26   2.0000      -1.289772       -35.0965
  27   2.0000      -1.287299       -35.0292
  28   2.0000      -0.765746       -20.8370
  29   2.0000      -0.758465       -20.6389
  30   2.0000      -0.758124       -20.6296
  31   2.0000      -0.751504       -20.4495
  32   2.0000      -0.744769       -20.2662
  33   2.0000      -0.743577       -20.2338
  34   2.0000      -0.703771       -19.1506
  35   2.0000      -0.671043       -18.2600
  36   2.0000      -0.670872       -18.2553
  37   2.0000      -0.663901       -18.0657
  38   2.0000      -0.279970        -7.6184
  39   2.0000      -0.276698        -7.5293
  40   2.0000      -0.266317        -7.2469
  41   2.0000      -0.266232        -7.2445
  42   2.0000      -0.261258        -7.1092
  43   2.0000      -0.257925        -7.0185
  44   2.0000      -0.250077        -6.8049
  45   2.0000      -0.248387        -6.7589
  46   2.0000      -0.248292        -6.7564
  47   2.0000      -0.234593        -6.3836
  48   2.0000      -0.232625        -6.3300
  49   2.0000      -0.227431        -6.1887
  50   2.0000      -0.225628        -6.1397
  51   2.0000      -0.223012        -6.0685
  52   2.0000      -0.217055        -5.9064
  53   2.0000      -0.211820        -5.7639
  54   2.0000      -0.202681        -5.5152
  55   2.0000      -0.197760        -5.3813
  56   2.0000      -0.190510        -5.1840
  57   2.0000      -0.185197        -5.0395
  58   2.0000      -0.170915        -4.6508
  59   2.0000      -0.168608        -4.5881
  60   2.0000      -0.156383        -4.2554
  61   2.0000      -0.151161        -4.1133
  62   2.0000      -0.143642        -3.9087
  63   2.0000      -0.140586        -3.8255
  64   2.0000      -0.132067        -3.5937
  65   2.0000      -0.131830        -3.5873
  66   2.0000      -0.131195        -3.5700
  67   2.0000      -0.120415        -3.2767
  68   0.0000       0.011823         0.3217
  69   0.0000       0.034612         0.9418
  70   0.0000       0.035215         0.9582
  71   0.0000       0.041730         1.1355
  72   0.0000       0.044968         1.2236

MULLIKEN ATOMIC CHARGES
-----------------------
   0 O :   -0.471217
   1 Ti:    1.078334
   2 Ti:    1.078335
   3 O :   -1.296480
   4 O :   -1.714920
   5 O :   -1.714914
   6 O :   -1.714915
   7 O :   -1.714921
   8 O :   -1.084391
   9 O :   -1.084389
  10 O :   -1.680259
  11 O :   -1.680262
  12 Q :    4.000000
  13 Q :    4.000000
  14 Q :    4.000000
  15 Q :    4.000000
  16 Q :    4.000000
  17 Q :    4.000000
  18 Q :    4.000000
  19 Q :    4.000000
  20 Q :    4.000000
  21 Q :    4.000000
  22 Q :    4.000000
  23 Q :    4.000000
  24 Q :    4.000000
  25 Q :    4.000000
  26 Q :    4.000000
  27 Q :    4.000000
  28 Q :    4.000000
  29 Q :    4.000000
  30 Q :    4.000000
  31 Q :    4.000000
  32 Q :    4.000000
  33 Q :    4.000000
  34 Q :    4.000000
  35 Q :    4.000000
  36 Q :    4.000000
  37 Q :    4.000000
  38 Q :    4.000000
  39 Q :    4.000000
  40 Q :    4.000000
  41 Q :    4.000000
  42 Q :    4.000000
  43 Q :    4.000000
  44 Q :    4.000000
  45 Q :    4.000000
  46 Q :    4.000000
  47 Q :    4.000000
  48 Q :    4.000000
  49 Q :    4.000000
  50 Q :    4.000000
  51 Q :    4.000000
  52 Q :    4.000000
  53 Q :    4.000000
  54 Q :    4.000000
  55 Q :    4.000000
  56 Q :    4.000000
  57 Q :    4.000000
  58 Q :    4.000000
  59 Q :    4.000000
  60 Q :    4.000000
  61 Q :    4.000000
  62 Q :    4.000000
  63 Q :    4.000000
  64 Q :    4.000000
  65 Q :    4.000000
  66 Q :    4.000000
  67 Q :    4.000000
  68 Q :    4.000000
  69 Q :    4.000000
  70 Q :    4.000000
  71 Q :    4.000000
  72 Q :    4.000000
  73 Q :    4.000000
  74 Q :    4.000000
  75 Q :    4.000000
  76 Q :    4.000000
  77 Q :    4.000000
  78 Q :    4.000000
Sum of atomic charges:  256.0000000

LOEWDIN ATOMIC CHARGES
----------------------
   0 O :   -0.141786
   1 Ti:   -0.161412
   2 Ti:   -0.161411
   3 O :   -0.992965
   4 O :   -1.467172
   5 O :   -1.467165
   6 O :   -1.467165
   7 O :   -1.467173
   8 O :   -0.846159
   9 O :   -0.846157
  10 O :   -1.490715
  11 O :   -1.490719
  12 Q :    4.000000
  13 Q :    4.000000
  14 Q :    4.000000
  15 Q :    4.000000
  16 Q :    4.000000
  17 Q :    4.000000
  18 Q :    4.000000
  19 Q :    4.000000
  20 Q :    4.000000
  21 Q :    4.000000
  22 Q :    4.000000
  23 Q :    4.000000
  24 Q :    4.000000
  25 Q :    4.000000
  26 Q :    4.000000
  27 Q :    4.000000
  28 Q :    4.000000
  29 Q :    4.000000
  30 Q :    4.000000
  31 Q :    4.000000
  32 Q :    4.000000
  33 Q :    4.000000
  34 Q :    4.000000
  35 Q :    4.000000
  36 Q :    4.000000
  37 Q :    4.000000
  38 Q :    4.000000
  39 Q :    4.000000
  40 Q :    4.000000
  41 Q :    4.000000
  42 Q :    4.000000
  43 Q :    4.000000
  44 Q :    4.000000
  45 Q :    4.000000
  46 Q :    4.000000
  47 Q :    4.000000
  48 Q :    4.000000
  49 Q :    4.000000
  50 Q :    4.000000
  51 Q :    4.000000
  52 Q :    4.000000
  53 Q :    4.000000
  54 Q :    4.000000
  55 Q :    4.000000
  56 Q :    4.000000
  57 Q :    4.000000
  58 Q :    4.000000
  59 Q :    4.000000
  60 Q :    4.000000
  61 Q :    4.000000
  62 Q :    4.000000
  63 Q :    4.000000
  64 Q :    4.000000
  65 Q :    4.000000
  66 Q :    4.000000
  67 Q :    4.000000
  68 Q :    4.000000
  69 Q :    4.000000
  70 Q :    4.000000
  71 Q :    4.000000
  72 Q :    4.000000
  73 Q :    4.000000
  74 Q :    4.000000
  75 Q :    4.000000
  76 Q :    4.000000
  77 Q :    4.000000
  78 Q :    4.000000

  Mayer bond orders larger than 0.100000
B(  0-O ,  1-Ti) :   1.1047 B(  0-O ,  2-Ti) :   1.1047 B(  1-Ti,  2-Ti) :   0.1259
B(  1-Ti,  3-O ) :   0.5769 B(  1-Ti,  4-O ) :   0.4724 B(  1-Ti,  5-O ) :   0.4724
B(  1-Ti,  8-O ) :   1.4270 B(  1-Ti, 10-O ) :   0.5433 B(  2-Ti,  3-O ) :   0.5769
B(  2-Ti,  6-O ) :   0.4724 B(  2-Ti,  7-O ) :   0.4724 B(  2-Ti,  9-O ) :   1.4270
B(  2-Ti, 11-O ) :   0.5433

FINAL SINGLE POINT ENERGY     -5090.160307705461

DIPOLE MOMENT
-------------
                                X             Y             Z
Electronic contribution:      0.00010       0.00001       7.82373
Nuclear contribution   :     -0.01261       0.00011   -1455.33764
                        -----------------------------------------
Total Dipole Moment    :     -0.01251       0.00012   -1447.51391
                        -----------------------------------------
Magnitude (a.u.)       :   1447.51391
Magnitude (Debye)      :   3679.28796

Rotational constants in cm-1:     0.039839     0.015763     0.014329
Rotational constants in MHz :  1194.357760   472.561051   429.565796

                             ****ORCA TERMINATED NORMALLY****
TOTAL RUN TIME: 0 days 0 hours 0 minutes 30 seconds 455 msec
