                         Program Version 5.0.1 -  RELEASE  -
|  1> ! VeryTightSCF DLPNO-B2PLYP NormalPNO RIJCOSX SlowConv DIIS
|  2> %maxcore 72000
|  3> %pal
|  4> nprocs 16
|  5> end
|  6> %pointcharges "orca.bq"
|  7> %method
|  8> Method DFT
|  9> RI on
| 10> RunTyp Energy
| 11> NewNCore Ti 18 end
| 12> NewNCore O 2 end
| 13> end
| 14> %basis
| 15> Basis "def2-QZVPP"
| 16> Aux "def2/J"
| 17> AuxC "def2-QZVPP/C"
| 18> end
| 19> %scf
| 20> HFTyp rks
| 21> Guess Hueckel
| 22> AutoStart True
| 23> SCFMode Direct
| 24> MaxIter 1000
| 25> sthresh 1e-6
| 26> AutoTRAHIter 100
| 27> end
| 28> %coords
| 29> CTyp xyz
| 30> Mult 1
| 31> Units angs
| 32>   Charge -12
| 33>   coords
| 34> O:                      0.00000000000    0.00000000000    0.00000000000
| 35> Ti                      0.00000536997    1.48055149700   -1.06892606631
| 36> Ti                      0.00000552101   -1.48055312386   -1.06892138720
| 37> O                       0.00000442396   -0.00000111986   -2.54840301833
| 38> O                      -2.03525914147    1.48054518365   -1.11149385695
| 39> O                       2.03526534753    1.48054527935   -1.11149163807
| 40> O                       2.03526471018   -1.48054700097   -1.11149295951
| 41> O                      -2.03525907462   -1.48054722666   -1.11149503385
| 42> O                      -0.00000037752    2.96109155033   -0.00000271770
| 43> O                      -0.00000037752   -2.96109552160   -0.00000271770
| 44> O                       0.00000449994    2.96109199200   -2.54840438198
| 45> O                       0.00000449994   -2.96109507993   -2.54840438198
| 46> Ti>    4.00000000000    3.25402319191   -0.00000112036   -1.42716202606
| 47> NewECP
| 48> N_core 0
| 49>   lmax f
| 50>   s 2
| 51>    1      0.860000       9.191690  2
| 52>    2      0.172000       0.008301  2
| 53>   p 2
| 54>    1      0.860000      17.997720  2
| 55>    2      0.172000      -0.032600  2
| 56>   d 2
| 57>    1      1.600000      -9.504310  2
| 58>    2      0.320000      -0.151370  2
| 59>   f 1
| 60>    1      1.000000000    0.000000000 2
| 61> end
| 62> Ti>    4.00000000000   -3.25401610555   -0.00000112036   -1.42716202606
| 63> NewECP
| 64> N_core 0
| 65>   lmax f
| 66>   s 2
| 67>    1      0.860000       9.191690  2
| 68>    2      0.172000       0.008301  2
| 69>   p 2
| 70>    1      0.860000      17.997720  2
| 71>    2      0.172000      -0.032600  2
| 72>   d 2
| 73>    1      1.600000      -9.504310  2
| 74>    2      0.320000      -0.151370  2
| 75>   f 1
| 76>    1      1.000000000    0.000000000 2
| 77> end
| 78> Ti>    4.00000000000   -0.00005220374   -0.00000071014   -4.41288396045
| 79> NewECP
| 80> N_core 0
| 81>   lmax f
| 82>   s 2
| 83>    1      0.860000       9.191690  2
| 84>    2      0.172000       0.008301  2
| 85>   p 2
| 86>    1      0.860000      17.997720  2
| 87>    2      0.172000      -0.032600  2
| 88>   d 2
| 89>    1      1.600000      -9.504310  2
| 90>    2      0.320000      -0.151370  2
| 91>   f 1
| 92>    1      1.000000000    0.000000000 2
| 93> end
| 94> Ti>    4.00000000000    0.00000552101    4.44163394806   -1.06892138720
| 95> NewECP
| 96> N_core 0
| 97>   lmax f
| 98>   s 2
| 99>    1      0.860000       9.191690  2
|100>    2      0.172000       0.008301  2
|101>   p 2
|102>    1      0.860000      17.997720  2
|103>    2      0.172000      -0.032600  2
|104>   d 2
|105>    1      1.600000      -9.504310  2
|106>    2      0.320000      -0.151370  2
|107>   f 1
|108>    1      1.000000000    0.000000000 2
|109> end
|110> Ti>    4.00000000000    0.00000536997   -4.44163557493   -1.06892606631
|111> NewECP
|112> N_core 0
|113>   lmax f
|114>   s 2
|115>    1      0.860000       9.191690  2
|116>    2      0.172000       0.008301  2
|117>   p 2
|118>    1      0.860000      17.997720  2
|119>    2      0.172000      -0.032600  2
|120>   d 2
|121>    1      1.600000      -9.504310  2
|122>    2      0.320000      -0.151370  2
|123>   f 1
|124>    1      1.000000000    0.000000000 2
|125> end
|126> Ti>    4.00000000000   -3.25401668289    2.96109302555   -1.42716235830
|127> NewECP
|128> N_core 0
|129>   lmax f
|130>   s 2
|131>    1      0.860000       9.191690  2
|132>    2      0.172000       0.008301  2
|133>   p 2
|134>    1      0.860000      17.997720  2
|135>    2      0.172000      -0.032600  2
|136>   d 2
|137>    1      1.600000      -9.504310  2
|138>    2      0.320000      -0.151370  2
|139>   f 1
|140>    1      1.000000000    0.000000000 2
|141> end
|142> Ti>    4.00000000000    3.25402261457    2.96109302555   -1.42716235830
|143> NewECP
|144> N_core 0
|145>   lmax f
|146>   s 2
|147>    1      0.860000       9.191690  2
|148>    2      0.172000       0.008301  2
|149>   p 2
|150>    1      0.860000      17.997720  2
|151>    2      0.172000      -0.032600  2
|152>   d 2
|153>    1      1.600000      -9.504310  2
|154>    2      0.320000      -0.151370  2
|155>   f 1
|156>    1      1.000000000    0.000000000 2
|157> end
|158> Ti>    4.00000000000    3.25402261457   -2.96109404638   -1.42716235830
|159> NewECP
|160> N_core 0
|161>   lmax f
|162>   s 2
|163>    1      0.860000       9.191690  2
|164>    2      0.172000       0.008301  2
|165>   p 2
|166>    1      0.860000      17.997720  2
|167>    2      0.172000      -0.032600  2
|168>   d 2
|169>    1      1.600000      -9.504310  2
|170>    2      0.320000      -0.151370  2
|171>   f 1
|172>    1      1.000000000    0.000000000 2
|173> end
|174> Ti>    4.00000000000   -3.25401668289   -2.96109404638   -1.42716235830
|175> NewECP
|176> N_core 0
|177>   lmax f
|178>   s 2
|179>    1      0.860000       9.191690  2
|180>    2      0.172000       0.008301  2
|181>   p 2
|182>    1      0.860000      17.997720  2
|183>    2      0.172000      -0.032600  2
|184>   d 2
|185>    1      1.600000      -9.504310  2
|186>    2      0.320000      -0.151370  2
|187>   f 1
|188>    1      1.000000000    0.000000000 2
|189> end
|190> Ti>    4.00000000000   -0.00005206359    2.96109301637   -4.41288206312
|191> NewECP
|192> N_core 0
|193>   lmax f
|194>   s 2
|195>    1      0.860000       9.191690  2
|196>    2      0.172000       0.008301  2
|197>   p 2
|198>    1      0.860000      17.997720  2
|199>    2      0.172000      -0.032600  2
|200>   d 2
|201>    1      1.600000      -9.504310  2
|202>    2      0.320000      -0.151370  2
|203>   f 1
|204>    1      1.000000000    0.000000000 2
|205> end
|206> Ti>    4.00000000000   -0.00005206359   -2.96109405556   -4.41288206312
|207> NewECP
|208> N_core 0
|209>   lmax f
|210>   s 2
|211>    1      0.860000       9.191690  2
|212>    2      0.172000       0.008301  2
|213>   p 2
|214>    1      0.860000      17.997720  2
|215>    2      0.172000      -0.032600  2
|216>   d 2
|217>    1      1.600000      -9.504310  2
|218>    2      0.320000      -0.151370  2
|219>   f 1
|220>    1      1.000000000    0.000000000 2
|221> end
|222> Ti>    4.00000000000    3.25395215162    1.48054533538   -4.59991327640
|223> NewECP
|224> N_core 0
|225>   lmax f
|226>   s 2
|227>    1      0.860000       9.191690  2
|228>    2      0.172000       0.008301  2
|229>   p 2
|230>    1      0.860000      17.997720  2
|231>    2      0.172000      -0.032600  2
|232>   d 2
|233>    1      1.600000      -9.504310  2
|234>    2      0.320000      -0.151370  2
|235>   f 1
|236>    1      1.000000000    0.000000000 2
|237> end
|238> Ti>    4.00000000000    3.25395195581   -1.48054722422   -4.59991284715
|239> NewECP
|240> N_core 0
|241>   lmax f
|242>   s 2
|243>    1      0.860000       9.191690  2
|244>    2      0.172000       0.008301  2
|245>   p 2
|246>    1      0.860000      17.997720  2
|247>    2      0.172000      -0.032600  2
|248>   d 2
|249>    1      1.600000      -9.504310  2
|250>    2      0.320000      -0.151370  2
|251>   f 1
|252>    1      1.000000000    0.000000000 2
|253> end
|254> Ti>    4.00000000000   -3.25408714585    1.48054533538   -4.59991327640
|255> NewECP
|256> N_core 0
|257>   lmax f
|258>   s 2
|259>    1      0.860000       9.191690  2
|260>    2      0.172000       0.008301  2
|261>   p 2
|262>    1      0.860000      17.997720  2
|263>    2      0.172000      -0.032600  2
|264>   d 2
|265>    1      1.600000      -9.504310  2
|266>    2      0.320000      -0.151370  2
|267>   f 1
|268>    1      1.000000000    0.000000000 2
|269> end
|270> Ti>    4.00000000000   -3.25408734165   -1.48054722422   -4.59991284715
|271> NewECP
|272> N_core 0
|273>   lmax f
|274>   s 2
|275>    1      0.860000       9.191690  2
|276>    2      0.172000       0.008301  2
|277>   p 2
|278>    1      0.860000      17.997720  2
|279>    2      0.172000      -0.032600  2
|280>   d 2
|281>    1      1.600000      -9.504310  2
|282>    2      0.320000      -0.151370  2
|283>   f 1
|284>    1      1.000000000    0.000000000 2
|285> end
|286> Ti>    4.00000000000   -6.50803392749    1.48055149700   -1.06892606631
|287> NewECP
|288> N_core 0
|289>   lmax f
|290>   s 2
|291>    1      0.860000       9.191690  2
|292>    2      0.172000       0.008301  2
|293>   p 2
|294>    1      0.860000      17.997720  2
|295>    2      0.172000      -0.032600  2
|296>   d 2
|297>    1      1.600000      -9.504310  2
|298>    2      0.320000      -0.151370  2
|299>   f 1
|300>    1      1.000000000    0.000000000 2
|301> end
|302> Ti>    4.00000000000    6.50804466744    1.48055149700   -1.06892606631
|303> NewECP
|304> N_core 0
|305>   lmax f
|306>   s 2
|307>    1      0.860000       9.191690  2
|308>    2      0.172000       0.008301  2
|309>   p 2
|310>    1      0.860000      17.997720  2
|311>    2      0.172000      -0.032600  2
|312>   d 2
|313>    1      1.600000      -9.504310  2
|314>    2      0.320000      -0.151370  2
|315>   f 1
|316>    1      1.000000000    0.000000000 2
|317> end
|318> Ti>    4.00000000000    6.50804481848   -1.48055312386   -1.06892138720
|319> NewECP
|320> N_core 0
|321>   lmax f
|322>   s 2
|323>    1      0.860000       9.191690  2
|324>    2      0.172000       0.008301  2
|325>   p 2
|326>    1      0.860000      17.997720  2
|327>    2      0.172000      -0.032600  2
|328>   d 2
|329>    1      1.600000      -9.504310  2
|330>    2      0.320000      -0.151370  2
|331>   f 1
|332>    1      1.000000000    0.000000000 2
|333> end
|334> Ti>    4.00000000000   -6.50803377645   -1.48055312386   -1.06892138720
|335> NewECP
|336> N_core 0
|337>   lmax f
|338>   s 2
|339>    1      0.860000       9.191690  2
|340>    2      0.172000       0.008301  2
|341>   p 2
|342>    1      0.860000      17.997720  2
|343>    2      0.172000      -0.032600  2
|344>   d 2
|345>    1      1.600000      -9.504310  2
|346>    2      0.320000      -0.151370  2
|347>   f 1
|348>    1      1.000000000    0.000000000 2
|349> end
|350> Ti>    4.00000000000   -3.25401610555    5.92218595157   -1.42716202606
|351> NewECP
|352> N_core 0
|353>   lmax f
|354>   s 2
|355>    1      0.860000       9.191690  2
|356>    2      0.172000       0.008301  2
|357>   p 2
|358>    1      0.860000      17.997720  2
|359>    2      0.172000      -0.032600  2
|360>   d 2
|361>    1      1.600000      -9.504310  2
|362>    2      0.320000      -0.151370  2
|363>   f 1
|364>    1      1.000000000    0.000000000 2
|365> end
|366> Ti>    4.00000000000    3.25402319191    5.92218595157   -1.42716202606
|367> NewECP
|368> N_core 0
|369>   lmax f
|370>   s 2
|371>    1      0.860000       9.191690  2
|372>    2      0.172000       0.008301  2
|373>   p 2
|374>    1      0.860000      17.997720  2
|375>    2      0.172000      -0.032600  2
|376>   d 2
|377>    1      1.600000      -9.504310  2
|378>    2      0.320000      -0.151370  2
|379>   f 1
|380>    1      1.000000000    0.000000000 2
|381> end
|382> Ti>    4.00000000000    3.25402319191   -5.92218819228   -1.42716202606
|383> NewECP
|384> N_core 0
|385>   lmax f
|386>   s 2
|387>    1      0.860000       9.191690  2
|388>    2      0.172000       0.008301  2
|389>   p 2
|390>    1      0.860000      17.997720  2
|391>    2      0.172000      -0.032600  2
|392>   d 2
|393>    1      1.600000      -9.504310  2
|394>    2      0.320000      -0.151370  2
|395>   f 1
|396>    1      1.000000000    0.000000000 2
|397> end
|398> Ti>    4.00000000000   -3.25401610555   -5.92218819228   -1.42716202606
|399> NewECP
|400> N_core 0
|720> N_core 0
|721>   lmax f
|722>   s 2
|723>    1      0.860000       9.191690  2
|724>    2      0.172000       0.008301  2
|725>   p 2
|726>    1      0.860000      17.997720  2
|727>    2      0.172000      -0.032600  2
|728>   d 2
|729>    1      1.600000      -9.504310  2
|730>    2      0.320000      -0.151370  2
|731>   f 1
|732>    1      1.000000000    0.000000000 2
|733> end
|734> Ti>    4.00000000000    3.25401657974   -0.00000100232   -7.78540932970
|735> NewECP
|736> N_core 0
|737>   lmax f
|738>   s 2
|739>    1      0.860000       9.191690  2
|740>    2      0.172000       0.008301  2
|741>   p 2
|742>    1      0.860000      17.997720  2
|743>    2      0.172000      -0.032600  2
|744>   d 2
|745>    1      1.600000      -9.504310  2
|746>    2      0.320000      -0.151370  2
|747>   f 1
|748>    1      1.000000000    0.000000000 2
|749> end
|750> Ti>    4.00000000000   -3.25402271772   -0.00000100232   -7.78540932970
|751> NewECP
|752> N_core 0
|753>   lmax f
|754>   s 2
|755>    1      0.860000       9.191690  2
|756>    2      0.172000       0.008301  2
|757>   p 2
|758>    1      0.860000      17.997720  2
|759>    2      0.172000      -0.032600  2
|760>   d 2
|761>    1      1.600000      -9.504310  2
|762>    2      0.320000      -0.151370  2
|763>   f 1
|764>    1      1.000000000    0.000000000 2
|765> end
|766> Ti>    4.00000000000   -3.25402271772    2.96109253364   -7.78540932970
|767> NewECP
|768> N_core 0
|769>   lmax f
|770>   s 2
|771>    1      0.860000       9.191690  2
|772>    2      0.172000       0.008301  2
|773>   p 2
|774>    1      0.860000      17.997720  2
|775>    2      0.172000      -0.032600  2
|776>   d 2
|777>    1      1.600000      -9.504310  2
|778>    2      0.320000      -0.151370  2
|779>   f 1
|780>    1      1.000000000    0.000000000 2
|781> end
|782> Ti>    4.00000000000    3.25401657974    2.96109253364   -7.78540932970
|783> NewECP
|784> N_core 0
|785>   lmax f
|786>   s 2
|787>    1      0.860000       9.191690  2
|788>    2      0.172000       0.008301  2
|789>   p 2
|790>    1      0.860000      17.997720  2
|791>    2      0.172000      -0.032600  2
|792>   d 2
|793>    1      1.600000      -9.504310  2
|794>    2      0.320000      -0.151370  2
|795>   f 1
|796>    1      1.000000000    0.000000000 2
|797> end
|798> Ti>    4.00000000000    3.25401657974   -2.96109453828   -7.78540932970
|799> NewECP
|800> N_core 0
|801>   lmax f
|802>   s 2
|803>    1      0.860000       9.191690  2
|804>    2      0.172000       0.008301  2
|805>   p 2
|806>    1      0.860000      17.997720  2
|807>    2      0.172000      -0.032600  2
|808>   d 2
|809>    1      1.600000      -9.504310  2
|810>    2      0.320000      -0.151370  2
|811>   f 1
|812>    1      1.000000000    0.000000000 2
|813> end
|814> Ti>    4.00000000000   -3.25402271772   -2.96109453828   -7.78540932970
|815> NewECP
|816> N_core 0
|817>   lmax f
|818>   s 2
|819>    1      0.860000       9.191690  2
|820>    2      0.172000       0.008301  2
|821>   p 2
|822>    1      0.860000      17.997720  2
|823>    2      0.172000      -0.032600  2
|824>   d 2
|825>    1      1.600000      -9.504310  2
|826>    2      0.320000      -0.151370  2
|827>   f 1
|828>    1      1.000000000    0.000000000 2
|829> end
|830> Ti>    4.00000000000   -0.00000306899    4.44163930162   -7.78540932970
|831> NewECP
|832> N_core 0
|833>   lmax f
|834>   s 2
|835>    1      0.860000       9.191690  2
|836>    2      0.172000       0.008301  2
|837>   p 2
|838>    1      0.860000      17.997720  2
|839>    2      0.172000      -0.032600  2
|840>   d 2
|841>    1      1.600000      -9.504310  2
|842>    2      0.320000      -0.151370  2
|843>   f 1
|844>    1      1.000000000    0.000000000 2
|845> end
|846> Ti>    4.00000000000   -0.00000306899   -4.44164130627   -7.78540932970
|847> NewECP
|848> N_core 0
|849>   lmax f
|850>   s 2
|851>    1      0.860000       9.191690  2
|852>    2      0.172000       0.008301  2
|853>   p 2
|854>    1      0.860000      17.997720  2
|855>    2      0.172000      -0.032600  2
|856>   d 2
|857>    1      1.600000      -9.504310  2
|858>    2      0.320000      -0.151370  2
|859>   f 1
|860>    1      1.000000000    0.000000000 2
|861> end
|862> Ti>    4.00000000000   -3.25408714585    7.40273240730   -4.59991327640
|863> NewECP
|864> N_core 0
|865>   lmax f
|866>   s 2
|867>    1      0.860000       9.191690  2
|868>    2      0.172000       0.008301  2
|869>   p 2
|870>    1      0.860000      17.997720  2
|871>    2      0.172000      -0.032600  2
|872>   d 2
|873>    1      1.600000      -9.504310  2
|874>    2      0.320000      -0.151370  2
|875>   f 1
|876>    1      1.000000000    0.000000000 2
|877> end
|878> Ti>    4.00000000000    3.25395215162    7.40273240730   -4.59991327640
|879> NewECP
|880> N_core 0
|881>   lmax f
|882>   s 2
|883>    1      0.860000       9.191690  2
|884>    2      0.172000       0.008301  2
|885>   p 2
|886>    1      0.860000      17.997720  2
|887>    2      0.172000      -0.032600  2
|888>   d 2
|889>    1      1.600000      -9.504310  2
|890>    2      0.320000      -0.151370  2
|891>   f 1
|892>    1      1.000000000    0.000000000 2
|893> end
|894> Ti>    4.00000000000    3.25395195581   -7.40273429615   -4.59991284715
|895> NewECP
|896> N_core 0
|897>   lmax f
|898>   s 2
|899>    1      0.860000       9.191690  2
|900>    2      0.172000       0.008301  2
|901>   p 2
|902>    1      0.860000      17.997720  2
|903>    2      0.172000      -0.032600  2
|904>   d 2
|905>    1      1.600000      -9.504310  2
|906>    2      0.320000      -0.151370  2
|907>   f 1
|908>    1      1.000000000    0.000000000 2
|909> end
|910> Ti>    4.00000000000   -3.25408734165   -7.40273429615   -4.59991284715
|911> NewECP
|912> N_core 0
|913>   lmax f
|914>   s 2
|915>    1      0.860000       9.191690  2
|916>    2      0.172000       0.008301  2
|917>   p 2
|918>    1      0.860000      17.997720  2
|919>    2      0.172000      -0.032600  2
|920>   d 2
|921>    1      1.600000      -9.504310  2
|922>    2      0.320000      -0.151370  2
|923>   f 1
|924>    1      1.000000000    0.000000000 2
|925> end
|926> Ti>    4.00000000000   -3.25401668289    8.88328009748   -1.42716235830
|927> NewECP
|928> N_core 0
|929>   lmax f
|930>   s 2
|931>    1      0.860000       9.191690  2
|932>    2      0.172000       0.008301  2
|933>   p 2
|934>    1      0.860000      17.997720  2
|935>    2      0.172000      -0.032600  2
|936>   d 2
|937>    1      1.600000      -9.504310  2
|938>    2      0.320000      -0.151370  2
|939>   f 1
|940>    1      1.000000000    0.000000000 2
|941> end
|942> Ti>    4.00000000000    3.25402261457    8.88328009748   -1.42716235830
|943> NewECP
|944> N_core 0
|945>   lmax f
|946>   s 2
|947>    1      0.860000       9.191690  2
|948>    2      0.172000       0.008301  2
|949>   p 2
|950>    1      0.860000      17.997720  2
|951>    2      0.172000      -0.032600  2
|952>   d 2
|953>    1      1.600000      -9.504310  2
|954>    2      0.320000      -0.151370  2
|955>   f 1
|956>    1      1.000000000    0.000000000 2
|957> end
|958> Ti>    4.00000000000    3.25402261457   -8.88328111830   -1.42716235830
|959> NewECP
|960> N_core 0
|961>   lmax f
|962>   s 2
|963>    1      0.860000       9.191690  2
|964>    2      0.172000       0.008301  2
|965>   p 2
|966>    1      0.860000      17.997720  2
|967>    2      0.172000      -0.032600  2
|968>   d 2
|969>    1      1.600000      -9.504310  2
|970>    2      0.320000      -0.151370  2
|971>   f 1
|972>    1      1.000000000    0.000000000 2
|973> end
|974> Ti>    4.00000000000   -3.25401668289   -8.88328111830   -1.42716235830
|975> NewECP
|976> N_core 0
|977>   lmax f
|978>   s 2
|979>    1      0.860000       9.191690  2
|980>    2      0.172000       0.008301  2
|981>   p 2
|982>    1      0.860000      17.997720  2
|983>    2      0.172000      -0.032600  2
|984>   d 2
|985>    1      1.600000      -9.504310  2
|986>    2      0.320000      -0.151370  2
|987>   f 1
|988>    1      1.000000000    0.000000000 2
|989> end
|990> Ti>    4.00000000000   -0.00005206359    8.88328008829   -4.41288206312
|991> NewECP
|992> N_core 0
|993>   lmax f
|994>   s 2
|995>    1      0.860000       9.191690  2
|996>    2      0.172000       0.008301  2
|997>   p 2
|998>    1      0.860000      17.997720  2
|999>    2      0.172000      -0.032600  2
|1000>   d 2
|1001>    1      1.600000      -9.504310  2
|1002>    2      0.320000      -0.151370  2
|1003>   f 1
|1004>    1      1.000000000    0.000000000 2
|1005> end
|1006> Ti>    4.00000000000   -0.00005206359   -8.88328112748   -4.41288206312
|1007> NewECP
|1008> N_core 0
|1009>   lmax f
|1010>   s 2
|1011>    1      0.860000       9.191690  2
|1012>    2      0.172000       0.008301  2
|1013>   p 2
|1014>    1      0.860000      17.997720  2
|1015>    2      0.172000      -0.032600  2
|1016>   d 2
|1017>    1      1.600000      -9.504310  2
|1018>    2      0.320000      -0.151370  2
|1019>   f 1
|1020>    1      1.000000000    0.000000000 2
|1021> end
|1022> Ti>    4.00000000000   -3.25402271772    5.92218606960   -7.78540932970
|1023> NewECP
|1024> N_core 0
|1025>   lmax f
|1026>   s 2
|1027>    1      0.860000       9.191690  2
|1028>    2      0.172000       0.008301  2
|1029>   p 2
|1030>    1      0.860000      17.997720  2
|1031>    2      0.172000      -0.032600  2
|1032>   d 2
|1033>    1      1.600000      -9.504310  2
|1034>    2      0.320000      -0.151370  2
|1035>   f 1
|1036>    1      1.000000000    0.000000000 2
|1037> end
|1038> Ti>    4.00000000000    3.25401657974    5.92218606960   -7.78540932970
|1039> NewECP
|1040> N_core 0
|1041>   lmax f
|1042>   s 2
|1043>    1      0.860000       9.191690  2
|1044>    2      0.172000       0.008301  2
|1045>   p 2
|1046>    1      0.860000      17.997720  2
|1047>    2      0.172000      -0.032600  2
|1048>   d 2
|1049>    1      1.600000      -9.504310  2
|1050>    2      0.320000      -0.151370  2
|1051>   f 1
|1052>    1      1.000000000    0.000000000 2
|1053> end
|1054> Ti>    4.00000000000    3.25401657974   -5.92218807425   -7.78540932970
|1055> NewECP
|1056> N_core 0
|1057>   lmax f
|1058>   s 2
|1059>    1      0.860000       9.191690  2
|1060>    2      0.172000       0.008301  2
|1061>   p 2
|1062>    1      0.860000      17.997720  2
|1063>    2      0.172000      -0.032600  2
|1064>   d 2
|1065>    1      1.600000      -9.504310  2
|1066>    2      0.320000      -0.151370  2
|1067>   f 1
|1068>    1      1.000000000    0.000000000 2
|1069> end
|1070> Ti>    4.00000000000   -3.25402271772   -5.92218807425   -7.78540932970
|1071> NewECP
|1072> N_core 0
|1073>   lmax f
|1074>   s 2
|1075>    1      0.860000       9.191690  2
|1076>    2      0.172000       0.008301  2
|1077>   p 2
|1078>    1      0.860000      17.997720  2
|1079>    2      0.172000      -0.032600  2
|1080>   d 2
|1081>    1      1.600000      -9.504310  2
|1082>    2      0.320000      -0.151370  2
|1083>   f 1
|1084>    1      1.000000000    0.000000000 2
|1085> end
|1086> Ti>    4.00000000000   -0.00000306899    7.40273283758   -7.78540932970
|1087> NewECP
|1088> N_core 0
|1089>   lmax f
|1090>   s 2
|1091>    1      0.860000       9.191690  2
|1092>    2      0.172000       0.008301  2
|1093>   p 2
|1094>    1      0.860000      17.997720  2
|1095>    2      0.172000      -0.032600  2
|1096>   d 2
|1097>    1      1.600000      -9.504310  2
|1098>    2      0.320000      -0.151370  2
|1099>   f 1
|1100>    1      1.000000000    0.000000000 2
|1101> end
|1102> Ti>    4.00000000000   -0.00000306899   -7.40273484223   -7.78540932970
|1103> NewECP
|1104> N_core 0
|1105>   lmax f
|1106>   s 2
|1107>    1      0.860000       9.191690  2
|1108>    2      0.172000       0.008301  2
|1109>   p 2
|1110>    1      0.860000      17.997720  2
|1111>    2      0.172000      -0.032600  2
|1112>   d 2
|1113>    1      1.600000      -9.504310  2
|1114>    2      0.320000      -0.151370  2
|1115>   f 1
|1116>    1      1.000000000    0.000000000 2
|1117> end
|1118>   end
|1119> endd                         ****END OF INPUT****

CARTESIAN COORDINATES (ANGSTROEM)
---------------------------------
  O      0.000000    0.000000    0.000000
  Ti     0.000005    1.480551   -1.068926
  Ti     0.000006   -1.480553   -1.068921
  O      0.000004   -0.000001   -2.548403
  O     -2.035259    1.480545   -1.111494
  O      2.035265    1.480545   -1.111492
  O      2.035265   -1.480547   -1.111493
  O     -2.035259   -1.480547   -1.111495
  O     -0.000000    2.961092   -0.000003
  O     -0.000000   -2.961096   -0.000003
  O      0.000004    2.961092   -2.548404
  O      0.000004   -2.961095   -2.548404
  Ti>    3.254023   -0.000001   -1.427162
  Ti>   -3.254016   -0.000001   -1.427162
  Ti>   -0.000052   -0.000001   -4.412884
  Ti>    0.000006    4.441634   -1.068921
  Ti>    0.000005   -4.441636   -1.068926
  Ti>   -3.254017    2.961093   -1.427162
  Ti>    3.254023    2.961093   -1.427162
  Ti>    3.254023   -2.961094   -1.427162
  Ti>   -3.254017   -2.961094   -1.427162
  Ti>   -0.000052    2.961093   -4.412882
  Ti>   -0.000052   -2.961094   -4.412882
  Ti>    3.253952    1.480545   -4.599913
  Ti>    3.253952   -1.480547   -4.599913
  Ti>   -3.254087    1.480545   -4.599913
  Ti>   -3.254087   -1.480547   -4.599913
  Ti>   -6.508034    1.480551   -1.068926
  Ti>    6.508045    1.480551   -1.068926
  Ti>    6.508045   -1.480553   -1.068921
  Ti>   -6.508034   -1.480553   -1.068921
  Ti>   -3.254016    5.922186   -1.427162
  Ti>    3.254023    5.922186   -1.427162
  Ti>    3.254023   -5.922188   -1.427162
  Ti>   -3.254016   -5.922188   -1.427162
  Ti>    3.253952    4.441640   -4.599913
  Ti>    3.253952   -4.441642   -4.599913
  Ti>   -3.254087    4.441640   -4.599913
  Ti>   -3.254087   -4.441642   -4.599913
  Ti>   -0.000052    5.922186   -4.412884
  Ti>   -0.000052   -5.922188   -4.412884
  Ti>    0.000005    7.402739   -1.068926
  Ti>    0.000006   -7.402740   -1.068921
  Ti>    6.507987   -0.000001   -4.412884
  Ti>   -6.508092   -0.000001   -4.412884
  Ti>   -0.000003    1.480546   -7.785409
  Ti>   -0.000003   -1.480548   -7.785409
  Ti>   -6.508034    4.441634   -1.068921
  Ti>    6.508045    4.441634   -1.068921
  Ti>    6.508045   -4.441636   -1.068926
  Ti>   -6.508034   -4.441636   -1.068926
  Ti>    6.507987    2.961093   -4.412882
  Ti>    6.507987   -2.961094   -4.412882
  Ti>   -6.508091    2.961093   -4.412882
  Ti>   -6.508091   -2.961094   -4.412882
  Ti>    3.254017   -0.000001   -7.785409
  Ti>   -3.254023   -0.000001   -7.785409
  Ti>   -3.254023    2.961093   -7.785409
  Ti>    3.254017    2.961093   -7.785409
  Ti>    3.254017   -2.961095   -7.785409
  Ti>   -3.254023   -2.961095   -7.785409
  Ti>   -0.000003    4.441639   -7.785409
  Ti>   -0.000003   -4.441641   -7.785409
  Ti>   -3.254087    7.402732   -4.599913
  Ti>    3.253952    7.402732   -4.599913
  Ti>    3.253952   -7.402734   -4.599913
  Ti>   -3.254087   -7.402734   -4.599913
  Ti>   -3.254017    8.883280   -1.427162
  Ti>    3.254023    8.883280   -1.427162
  Ti>    3.254023   -8.883281   -1.427162
  Ti>   -3.254017   -8.883281   -1.427162
  Ti>   -0.000052    8.883280   -4.412882
  Ti>   -0.000052   -8.883281   -4.412882
  Ti>   -3.254023    5.922186   -7.785409
  Ti>    3.254017    5.922186   -7.785409
  Ti>    3.254017   -5.922188   -7.785409
  Ti>   -3.254023   -5.922188   -7.785409
  Ti>   -0.000003    7.402733   -7.785409
  Ti>   -0.000003   -7.402735   -7.785409

 Total Charge           Charge          ....  -12
 Multiplicity           Mult            ....    1
 Number of Electrons    NEL             ....  128
 Basis Dimension        Dim             ....  756

ORBITAL ENERGIES
----------------

  NO   OCC          E(Eh)            E(eV)
   0   2.0000    -180.724075     -4917.7521
   1   2.0000    -180.724075     -4917.7521
   2   2.0000     -20.563950      -559.5735
   3   2.0000     -20.563949      -559.5735
   4   2.0000     -19.635776      -534.3166
   5   2.0000     -19.635775      -534.3166
   6   2.0000     -19.635724      -534.3152
   7   2.0000     -19.635724      -534.3152
   8   2.0000     -19.619789      -533.8816
   9   2.0000     -19.619789      -533.8816
  10   2.0000     -19.604763      -533.4727
  11   2.0000     -19.561438      -532.2938
  12   2.0000     -19.561438      -532.2938
  13   2.0000     -17.138549      -466.3636
  14   2.0000     -17.138547      -466.3636
  15   2.0000     -17.134503      -466.2535
  16   2.0000     -17.134498      -466.2534
  17   2.0000     -17.130404      -466.1420
  18   2.0000     -17.130391      -466.1416
  19   2.0000      -2.583443       -70.2990
  20   2.0000      -2.582665       -70.2779
  21   2.0000      -1.620668       -44.1006
  22   2.0000      -1.620073       -44.0844
  23   2.0000      -1.615945       -43.9721
  24   2.0000      -1.613117       -43.8952
  25   2.0000      -1.609902       -43.8077
  26   2.0000      -1.603653       -43.6376
  27   2.0000      -1.064775       -28.9740
  28   2.0000      -1.059494       -28.8303
  29   2.0000      -1.055661       -28.7260
  30   2.0000      -1.050659       -28.5899
  31   2.0000      -1.030357       -28.0374
  32   2.0000      -1.030109       -28.0307
  33   2.0000      -0.995870       -27.0990
  34   2.0000      -0.946933       -25.7673
  35   2.0000      -0.945375       -25.7250
  36   2.0000      -0.472975       -12.8703
  37   2.0000      -0.468507       -12.7487
  38   2.0000      -0.457186       -12.4407
  39   2.0000      -0.457058       -12.4372
  40   2.0000      -0.446619       -12.1531
  41   2.0000      -0.442031       -12.0283
  42   2.0000      -0.440584       -11.9889
  43   2.0000      -0.439067       -11.9476
  44   2.0000      -0.424299       -11.5458
  45   2.0000      -0.420865       -11.4523
  46   2.0000      -0.417414       -11.3584
  47   2.0000      -0.414770       -11.2865
  48   2.0000      -0.410545       -11.1715
  49   2.0000      -0.408004       -11.1024
  50   2.0000      -0.405993       -11.0476
  51   2.0000      -0.392678       -10.6853
  52   2.0000      -0.387029       -10.5316
  53   2.0000      -0.371651       -10.1131
  54   2.0000      -0.364003        -9.9050
  55   2.0000      -0.359942        -9.7945
  56   2.0000      -0.328761        -8.9461
  57   2.0000      -0.328451        -8.9376
  58   2.0000      -0.318208        -8.6589
  59   2.0000      -0.299028        -8.1370
  60   2.0000      -0.296675        -8.0729
  61   2.0000      -0.292589        -7.9618
  62   2.0000      -0.290972        -7.9177
  63   2.0000      -0.135217        -3.6794
  64   0.0000       0.063404         1.7253
  65   0.0000       0.063750         1.7347
  66   0.0000       0.075531         2.0553
  67   0.0000       0.076253         2.0750
  68   0.0000       0.090061         2.4507

MULLIKEN ATOMIC CHARGES
-----------------------
   0 O :    0.080886
   1 Ti:    0.509676
   2 Ti:    0.509627
   3 O :   -1.223689
   4 O :   -1.571598
   5 O :   -1.571595
   6 O :   -1.571600
   7 O :   -1.571604
   8 O :   -1.121141
   9 O :   -1.121135
  10 O :   -1.673910
  11 O :   -1.673918
  12 Q :    4.000000
  13 Q :    4.000000
  14 Q :    4.000000
  15 Q :    4.000000
  16 Q :    4.000000
  17 Q :    4.000000
  18 Q :    4.000000
  19 Q :    4.000000
  20 Q :    4.000000
  21 Q :    4.000000
  22 Q :    4.000000
  23 Q :    4.000000
  24 Q :    4.000000
  25 Q :    4.000000
  26 Q :    4.000000
  27 Q :    4.000000
  28 Q :    4.000000
  29 Q :    4.000000
  30 Q :    4.000000
  31 Q :    4.000000
  32 Q :    4.000000
  33 Q :    4.000000
  34 Q :    4.000000
  35 Q :    4.000000
  36 Q :    4.000000
  37 Q :    4.000000
  38 Q :    4.000000
  39 Q :    4.000000
  40 Q :    4.000000
  41 Q :    4.000000
  42 Q :    4.000000
  43 Q :    4.000000
  44 Q :    4.000000
  45 Q :    4.000000
  46 Q :    4.000000
  47 Q :    4.000000
  48 Q :    4.000000
  49 Q :    4.000000
  50 Q :    4.000000
  51 Q :    4.000000
  52 Q :    4.000000
  53 Q :    4.000000
  54 Q :    4.000000
  55 Q :    4.000000
  56 Q :    4.000000
  57 Q :    4.000000
  58 Q :    4.000000
  59 Q :    4.000000
  60 Q :    4.000000
  61 Q :    4.000000
  62 Q :    4.000000
  63 Q :    4.000000
  64 Q :    4.000000
  65 Q :    4.000000
  66 Q :    4.000000
  67 Q :    4.000000
  68 Q :    4.000000
  69 Q :    4.000000
  70 Q :    4.000000
  71 Q :    4.000000
  72 Q :    4.000000
  73 Q :    4.000000
  74 Q :    4.000000
  75 Q :    4.000000
  76 Q :    4.000000
  77 Q :    4.000000
  78 Q :    4.000000
Sum of atomic charges:  256.0000000

LOEWDIN ATOMIC CHARGES
----------------------
   0 O :   -0.558195
   1 Ti:   -1.998375
   2 Ti:   -1.998369
   3 O :   -0.408005
   4 O :   -1.000890
   5 O :   -1.000882
   6 O :   -1.000882
   7 O :   -1.000891
   8 O :   -0.441336
   9 O :   -0.441334
  10 O :   -1.075417
  11 O :   -1.075424
  12 Q :    4.000000
  13 Q :    4.000000
  14 Q :    4.000000
  15 Q :    4.000000
  16 Q :    4.000000
  17 Q :    4.000000
  18 Q :    4.000000
  19 Q :    4.000000
  20 Q :    4.000000
  21 Q :    4.000000
  22 Q :    4.000000
  23 Q :    4.000000
  24 Q :    4.000000
  25 Q :    4.000000
  26 Q :    4.000000
  27 Q :    4.000000
  28 Q :    4.000000
  29 Q :    4.000000
  30 Q :    4.000000
  31 Q :    4.000000
  32 Q :    4.000000
  33 Q :    4.000000
  34 Q :    4.000000
  35 Q :    4.000000
  36 Q :    4.000000
  37 Q :    4.000000
  38 Q :    4.000000
  39 Q :    4.000000
  40 Q :    4.000000
  41 Q :    4.000000
  42 Q :    4.000000
  43 Q :    4.000000
  44 Q :    4.000000
  45 Q :    4.000000
  46 Q :    4.000000
  47 Q :    4.000000
  48 Q :    4.000000
  49 Q :    4.000000
  50 Q :    4.000000
  51 Q :    4.000000
  52 Q :    4.000000
  53 Q :    4.000000
  54 Q :    4.000000
  55 Q :    4.000000
  56 Q :    4.000000
  57 Q :    4.000000
  58 Q :    4.000000
  59 Q :    4.000000
  60 Q :    4.000000
  61 Q :    4.000000
  62 Q :    4.000000
  63 Q :    4.000000
  64 Q :    4.000000
  65 Q :    4.000000
  66 Q :    4.000000
  67 Q :    4.000000
  68 Q :    4.000000
  69 Q :    4.000000
  70 Q :    4.000000
  71 Q :    4.000000
  72 Q :    4.000000
  73 Q :    4.000000
  74 Q :    4.000000
  75 Q :    4.000000
  76 Q :    4.000000
  77 Q :    4.000000
  78 Q :    4.000000

  Mayer bond orders larger than 0.100000
B(  1-Ti,  3-O ) :   0.7311 B(  1-Ti,  4-O ) :   1.2531 B(  1-Ti,  5-O ) :   1.2532
B(  1-Ti,  6-O ) :  -0.4546 B(  1-Ti,  7-O ) :  -0.4546 B(  1-Ti,  8-O ) :   1.2435
B(  1-Ti,  9-O ) :   0.3020 B(  1-Ti, 10-O ) :   0.2849 B(  1-Ti, 11-O ) :   0.3059
B(  2-Ti,  3-O ) :   0.7311 B(  2-Ti,  4-O ) :  -0.4546 B(  2-Ti,  5-O ) :  -0.4546
B(  2-Ti,  6-O ) :   1.2532 B(  2-Ti,  7-O ) :   1.2532 B(  2-Ti,  8-O ) :   0.3019
B(  2-Ti,  9-O ) :   1.2435 B(  2-Ti, 10-O ) :   0.3059 B(  2-Ti, 11-O ) :   0.2849

MP2 TOTAL ENERGY:    -5016.687258878 Eh
FINAL SINGLE POINT ENERGY     -5016.687258877503

DIPOLE MOMENT
-------------
                                X             Y             Z
Electronic contribution:      0.00012       0.00001       7.94654
Nuclear contribution   :     -0.01273       0.00015   -1416.82440
                        -----------------------------------------
Total Dipole Moment    :     -0.01262       0.00016   -1408.87786
                        -----------------------------------------
Magnitude (a.u.)       :   1408.87786
Magnitude (Debye)      :   3581.08293

Rotational constants in cm-1:     0.042112     0.016107     0.014329
Rotational constants in MHz :  1262.475280   482.869400   429.565796

                             ****ORCA TERMINATED NORMALLY****
TOTAL RUN TIME: 0 days 0 hours 12 minutes 16 seconds 917 msec
