                         Program Version 5.0.1 -  RELEASE  -
|  1> ! TightSCF RIJCOSX SlowConv DIIS NOTRAH
|  2> %maxcore 4000
|  3> %pal
|  4>   nprocs 4
|  5> end
|  6> %method
|  7>   Method DFT
|  8>   Functional wB97X
|  9>   RI on
| 10>   RunTyp Energy
| 11> end
| 12> %basis
| 13>   Basis "def2-TZVPP"
| 14>   Aux "def2/J"
| 15> end
| 16> %scf
| 17>   HFTyp uks
| 18>   Guess Hueckel
| 19>   AutoStart True
| 20>   SCFMode Direct
| 21>   MaxIter 1000
| 22>   sthresh 1e-6
| 23> end
| 24> %coords
| 25>   CTyp xyz
| 26>   Mult 3
| 27>   Units angs
| 28>   coords
| 29> O                       0.00000000000    0.00000000000    0.00000000000
| 30>   end
| 31> end
| 32>
| 33>                          ****END OF INPUT****

CARTESIAN COORDINATES (ANGSTROEM)
---------------------------------
  O      0.000000    0.000000    0.000000

 Total Charge           Charge          ....    0
 Multiplicity           Mult            ....    3
 Number of Electrons    NEL             ....    8
 Basis Dimension        Dim             ....   31

ORBITAL ENERGIES
----------------
                 SPIN UP ORBITALS
  NO   OCC          E(Eh)            E(eV)
   0   1.0000     -19.332406      -526.0615
   1   1.0000      -1.142108       -31.0783
   2   1.0000      -0.569591       -15.4993
   3   1.0000      -0.569590       -15.4993
   4   1.0000      -0.497731       -13.5440
   5   0.0000       0.435228        11.8432
   6   0.0000       0.503147        13.6913
   7   0.0000       0.503147        13.6913
   8   0.0000       0.517583        14.0841
   9   0.0000       1.478834        40.2411

                 SPIN DOWN ORBITALS
  NO   OCC          E(Eh)            E(eV)
   0   1.0000     -19.294411      -525.0276
   1   1.0000      -0.971792       -26.4438
   2   1.0000      -0.441186       -12.0053
   3   0.0000      -0.064604        -1.7580
   4   0.0000      -0.064602        -1.7579
   5   0.0000       0.450648        12.2628
   6   0.0000       0.530116        14.4252
   7   0.0000       0.555947        15.1281

MULLIKEN ATOMIC CHARGES AND SPIN POPULATIONS
--------------------------------------------
   0 O :   -0.000000    2.000000
Sum of atomic charges         :   -0.0000000

LOEWDIN ATOMIC CHARGES AND SPIN POPULATIONS
-------------------------------------------
   0 O :   -0.000000    2.000000

FINAL SINGLE POINT ENERGY       -75.076893799286

DIPOLE MOMENT
-------------
                                X             Y             Z
Electronic contribution:      0.00000       0.00000       0.00000
Nuclear contribution   :      0.00000       0.00000       0.00000
                        -----------------------------------------
Total Dipole Moment    :      0.00000       0.00000       0.00000
                        -----------------------------------------
Magnitude (a.u.)       :      0.00000
Magnitude (Debye)      :      0.00000

Rotational constants in cm-1:     0.000000     0.000000     0.000000
Rotational constants in MHz :     0.000000     0.000000     0.000000

                             ****ORCA TERMINATED NORMALLY****
TOTAL RUN TIME: 0 days 0 hours 0 minutes 1 seconds 411 msec
