                         Program Version 5.0.2 -  RELEASE  -
|  1> ! TightSCF SlowConv DIIS
|  2> %maxcore 5000
|  3> %pal
|  4>   nprocs 8
|  5> end
|  6> %pointcharges "orca.bq"
|  7> %method
|  8>   Method DFT
|  9>   Functional PBE
| 10>   RI on
| 11>   RunTyp Energy
| 12> end
| 13> %basis
| 14>   Basis "def2-TZVPP"
| 15>   Aux "def2/J"
| 16> end
| 17> %scf
| 18>   HFTyp rks
| 19>   Guess Hueckel
| 20>   AutoStart True
| 21>   SCFMode Direct
| 22>   MaxIter 1000
| 23>   sthresh 1e-6
| 24>   AutoTRAHIter 100
| 25> end
| 26> %coords
| 27>   CTyp xyz
| 28>   Mult 1
| 29>   Units angs
| 30>   Charge 0
| 31>   coords
| 32> O                       0.00000000000    0.00000000000    0.00000000000
| 33> Ti                      0.00000000000    1.48054676798   -1.27209143018
| 34> Ti                      0.00000000000   -1.48054676798   -1.27209143018
| 35> Ti                      0.00000000000    0.00000000000    1.98192821856
| 36> O                       0.00000000000    2.96109353596    0.00000000000
| 37> O                       0.00000000000   -2.96109353596    0.00000000000
| 38> O                      -0.00000000000    2.96109353596   -2.54418286035
| 39> O                      -0.00000000000   -2.96109353596   -2.54418286035
| 40> O                      -0.00000000000    0.00000000000    3.96385643712
| 41> Ti>    4.00000000000   -3.25401964873    0.00000000000   -1.27209143018
| 42> NewECP
| 43> N_core 0
| 44>   lmax f
| 45>   s 2
| 46>    1      0.860000       9.191690  2
| 47>    2      0.172000       0.008301  2
| 48>   p 2
| 49>    1      0.860000      17.997720  2
| 50>    2      0.172000      -0.032600  2
| 51>   d 2
| 52>    1      1.600000      -9.504310  2
| 53>    2      0.320000      -0.151370  2
| 54>   f 1
| 55>    1      1.000000000    0.000000000 2
| 56> end
| 57> Ti>    4.00000000000    3.25401964873    0.00000000000   -1.27209143018
| 58> NewECP
| 59> N_core 0
| 60>   lmax f
| 61>   s 2
| 62>    1      0.860000       9.191690  2
| 63>    2      0.172000       0.008301  2
| 64>   p 2
| 65>    1      0.860000      17.997720  2
| 66>    2      0.172000      -0.032600  2
| 67>   d 2
| 68>    1      1.600000      -9.504310  2
| 69>    2      0.320000      -0.151370  2
| 70>   f 1
| 71>    1      1.000000000    0.000000000 2
| 72> end
| 73> Ti>    4.00000000000    0.00000000000    2.96109353596    1.98192821856
| 74> NewECP
| 75> N_core 0
| 76>   lmax f
| 77>   s 2
| 78>    1      0.860000       9.191690  2
| 79>    2      0.172000       0.008301  2
| 80>   p 2
| 81>    1      0.860000      17.997720  2
| 82>    2      0.172000      -0.032600  2
| 83>   d 2
| 84>    1      1.600000      -9.504310  2
| 85>    2      0.320000      -0.151370  2
| 86>   f 1
| 87>    1      1.000000000    0.000000000 2
| 88> end
| 89> Ti>    4.00000000000    0.00000000000   -2.96109353596    1.98192821856
| 90> NewECP
| 91> N_core 0
| 92>   lmax f
| 93>   s 2
| 94>    1      0.860000       9.191690  2
| 95>    2      0.172000       0.008301  2
| 96>   p 2
| 97>    1      0.860000      17.997720  2
| 98>    2      0.172000      -0.032600  2
| 99>   d 2
|100>    1      1.600000      -9.504310  2
|101>    2      0.320000      -0.151370  2
|102>   f 1
|103>    1      1.000000000    0.000000000 2
|104> end
|105> Ti>    4.00000000000   -3.25401964873    1.48054676798    1.98192821856
|106> NewECP
|107> N_core 0
|108>   lmax f
|109>   s 2
|110>    1      0.860000       9.191690  2
|111>    2      0.172000       0.008301  2
|112>   p 2
|113>    1      0.860000      17.997720  2
|114>    2      0.172000      -0.032600  2
|115>   d 2
|116>    1      1.600000      -9.504310  2
|117>    2      0.320000      -0.151370  2
|118>   f 1
|119>    1      1.000000000    0.000000000 2
|120> end
|121> Ti>    4.00000000000    3.25401964873    1.48054676798    1.98192821856
|122> NewECP
|123> N_core 0
|124>   lmax f
|125>   s 2
|126>    1      0.860000       9.191690  2
|127>    2      0.172000       0.008301  2
|128>   p 2
|129>    1      0.860000      17.997720  2
|130>    2      0.172000      -0.032600  2
|131>   d 2
|132>    1      1.600000      -9.504310  2
|133>    2      0.320000      -0.151370  2
|134>   f 1
|135>    1      1.000000000    0.000000000 2
|136> end
|137> Ti>    4.00000000000    3.25401964873   -1.48054676798    1.98192821856
|138> NewECP
|139> N_core 0
|140>   lmax f
|141>   s 2
|142>    1      0.860000       9.191690  2
|143>    2      0.172000       0.008301  2
|144>   p 2
|145>    1      0.860000      17.997720  2
|146>    2      0.172000      -0.032600  2
|147>   d 2
|148>    1      1.600000      -9.504310  2
|149>    2      0.320000      -0.151370  2
|150>   f 1
|151>    1      1.000000000    0.000000000 2
|152> end
|153> Ti>    4.00000000000   -3.25401964873   -1.48054676798    1.98192821856
|154> NewECP
|155> N_core 0
|156>   lmax f
|157>   s 2
|158>    1      0.860000       9.191690  2
|159>    2      0.172000       0.008301  2
|160>   p 2
|161>    1      0.860000      17.997720  2
|162>    2      0.172000      -0.032600  2
|163>   d 2
|164>    1      1.600000      -9.504310  2
|165>    2      0.320000      -0.151370  2
|166>   f 1
|167>    1      1.000000000    0.000000000 2
|168> end
|169> Ti>    4.00000000000    0.00000000000    0.00000000000   -4.52611107891
|170> NewECP
|171> N_core 0
|172>   lmax f
|173>   s 2
|174>    1      0.860000       9.191690  2
|175>    2      0.172000       0.008301  2
|176>   p 2
|177>    1      0.860000      17.997720  2
|178>    2      0.172000      -0.032600  2
|179>   d 2
|180>    1      1.600000      -9.504310  2
|181>    2      0.320000      -0.151370  2
|182>   f 1
|183>    1      1.000000000    0.000000000 2
|184> end
|185> Ti>    4.00000000000   -3.25401964873    2.96109353596   -1.27209143018
|186> NewECP
|187> N_core 0
|188>   lmax f
|189>   s 2
|190>    1      0.860000       9.191690  2
|191>    2      0.172000       0.008301  2
|192>   p 2
|193>    1      0.860000      17.997720  2
|194>    2      0.172000      -0.032600  2
|195>   d 2
|196>    1      1.600000      -9.504310  2
|197>    2      0.320000      -0.151370  2
|198>   f 1
|199>    1      1.000000000    0.000000000 2
|200> end
|201> Ti>    4.00000000000    3.25401964873    2.96109353596   -1.27209143018
|202> NewECP
|203> N_core 0
|204>   lmax f
|205>   s 2
|206>    1      0.860000       9.191690  2
|207>    2      0.172000       0.008301  2
|208>   p 2
|209>    1      0.860000      17.997720  2
|210>    2      0.172000      -0.032600  2
|211>   d 2
|212>    1      1.600000      -9.504310  2
|213>    2      0.320000      -0.151370  2
|214>   f 1
|215>    1      1.000000000    0.000000000 2
|216> end
|217> Ti>    4.00000000000    3.25401964873   -2.96109353596   -1.27209143018
|218> NewECP
|219> N_core 0
|220>   lmax f
|221>   s 2
|222>    1      0.860000       9.191690  2
|223>    2      0.172000       0.008301  2
|224>   p 2
|225>    1      0.860000      17.997720  2
|226>    2      0.172000      -0.032600  2
|227>   d 2
|228>    1      1.600000      -9.504310  2
|229>    2      0.320000      -0.151370  2
|230>   f 1
|231>    1      1.000000000    0.000000000 2
|232> end
|233> Ti>    4.00000000000   -3.25401964873   -2.96109353596   -1.27209143018
|234> NewECP
|235> N_core 0
|236>   lmax f
|237>   s 2
|238>    1      0.860000       9.191690  2
|239>    2      0.172000       0.008301  2
|240>   p 2
|241>    1      0.860000      17.997720  2
|242>    2      0.172000      -0.032600  2
|243>   d 2
|244>    1      1.600000      -9.504310  2
|245>    2      0.320000      -0.151370  2
|246>   f 1
|247>    1      1.000000000    0.000000000 2
|248> end
|249> Ti>    4.00000000000    0.00000000000    4.44164030394   -1.27209143018
|250> NewECP
|251> N_core 0
|252>   lmax f
|253>   s 2
|254>    1      0.860000       9.191690  2
|255>    2      0.172000       0.008301  2
|256>   p 2
|257>    1      0.860000      17.997720  2
|258>    2      0.172000      -0.032600  2
|259>   d 2
|260>    1      1.600000      -9.504310  2
|261>    2      0.320000      -0.151370  2
|262>   f 1
|263>    1      1.000000000    0.000000000 2
|264> end
|265> Ti>    4.00000000000    0.00000000000   -4.44164030394   -1.27209143018
|266> NewECP
|267> N_core 0
|268>   lmax f
|269>   s 2
|270>    1      0.860000       9.191690  2
|271>    2      0.172000       0.008301  2
|272>   p 2
|273>    1      0.860000      17.997720  2
|274>    2      0.172000      -0.032600  2
|275>   d 2
|276>    1      1.600000      -9.504310  2
|277>    2      0.320000      -0.151370  2
|278>   f 1
|279>    1      1.000000000    0.000000000 2
|280> end
|281> Ti>    4.00000000000    0.00000000000    2.96109353596   -4.52611107891
|282> NewECP
|283> N_core 0
|284>   lmax f
|285>   s 2
|286>    1      0.860000       9.191690  2
|287>    2      0.172000       0.008301  2
|288>   p 2
|289>    1      0.860000      17.997720  2
|290>    2      0.172000      -0.032600  2
|291>   d 2
|292>    1      1.600000      -9.504310  2
|293>    2      0.320000      -0.151370  2
|294>   f 1
|295>    1      1.000000000    0.000000000 2
|296> end
|297> Ti>    4.00000000000    0.00000000000   -2.96109353596   -4.52611107891
|298> NewECP
|299> N_core 0
|300>   lmax f
|301>   s 2
|302>    1      0.860000       9.191690  2
|303>    2      0.172000       0.008301  2
|304>   p 2
|305>    1      0.860000      17.997720  2
|306>    2      0.172000      -0.032600  2
|307>   d 2
|308>    1      1.600000      -9.504310  2
|309>    2      0.320000      -0.151370  2
|310>   f 1
|311>    1      1.000000000    0.000000000 2
|312> end
|313> Ti>    4.00000000000    0.00000000000    1.48054676798    5.23594786729
|314> NewECP
|315> N_core 0
|316>   lmax f
|317>   s 2
|318>    1      0.860000       9.191690  2
|319>    2      0.172000       0.008301  2
|320>   p 2
|321>    1      0.860000      17.997720  2
|322>    2      0.172000      -0.032600  2
|323>   d 2
|324>    1      1.600000      -9.504310  2
|325>    2      0.320000      -0.151370  2
|326>   f 1
|327>    1      1.000000000    0.000000000 2
|328> end
|329> Ti>    4.00000000000    0.00000000000   -1.48054676798    5.23594786729
|330> NewECP
|331> N_core 0
|332>   lmax f
|333>   s 2
|334>    1      0.860000       9.191690  2
|335>    2      0.172000       0.008301  2
|336>   p 2
|337>    1      0.860000      17.997720  2
|338>    2      0.172000      -0.032600  2
|339>   d 2
|340>    1      1.600000      -9.504310  2
|341>    2      0.320000      -0.151370  2
|342>   f 1
|343>    1      1.000000000    0.000000000 2
|344> end
|345> Ti>    4.00000000000   -3.25401964873    1.48054676798   -4.52611107891
|346> NewECP
|347> N_core 0
|348>   lmax f
|349>   s 2
|350>    1      0.860000       9.191690  2
|351>    2      0.172000       0.008301  2
|352>   p 2
|353>    1      0.860000      17.997720  2
|354>    2      0.172000      -0.032600  2
|355>   d 2
|356>    1      1.600000      -9.504310  2
|357>    2      0.320000      -0.151370  2
|358>   f 1
|359>    1      1.000000000    0.000000000 2
|360> end
|361> Ti>    4.00000000000    3.25401964873    1.48054676798   -4.52611107891
|362> NewECP
|363> N_core 0
|364>   lmax f
|365>   s 2
|366>    1      0.860000       9.191690  2
|367>    2      0.172000       0.008301  2
|368>   p 2
|369>    1      0.860000      17.997720  2
|370>    2      0.172000      -0.032600  2
|371>   d 2
|372>    1      1.600000      -9.504310  2
|373>    2      0.320000      -0.151370  2
|374>   f 1
|375>    1      1.000000000    0.000000000 2
|376> end
|377> Ti>    4.00000000000    3.25401964873   -1.48054676798   -4.52611107891
|378> NewECP
|379> N_core 0
|380>   lmax f
|381>   s 2
|382>    1      0.860000       9.191690  2
|383>    2      0.172000       0.008301  2
|384>   p 2
|385>    1      0.860000      17.997720  2
|386>    2      0.172000      -0.032600  2
|387>   d 2
|388>    1      1.600000      -9.504310  2
|389>    2      0.320000      -0.151370  2
|390>   f 1
|391>    1      1.000000000    0.000000000 2
|392> end
|393> Ti>    4.00000000000   -3.25401964873   -1.48054676798   -4.52611107891
|394> NewECP
|395> N_core 0
|396>   lmax f
|397>   s 2
|398>    1      0.860000       9.191690  2
|399>    2      0.172000       0.008301  2
|400>   p 2
|1499> N_core 0
|1500>   lmax f
|1501>   s 2
|1502>    1      0.860000       9.191690  2
|1503>    2      0.172000       0.008301  2
|1504>   p 2
|1505>    1      0.860000      17.997720  2
|1506>    2      0.172000      -0.032600  2
|1507>   d 2
|1508>    1      1.600000      -9.504310  2
|1509>    2      0.320000      -0.151370  2
|1510>   f 1
|1511>    1      1.000000000    0.000000000 2
|1512> end
|1513> Ti>    4.00000000000    0.00000000000    7.40273383991    5.23594786729
|1514> NewECP
|1515> N_core 0
|1516>   lmax f
|1517>   s 2
|1518>    1      0.860000       9.191690  2
|1519>    2      0.172000       0.008301  2
|1520>   p 2
|1521>    1      0.860000      17.997720  2
|1522>    2      0.172000      -0.032600  2
|1523>   d 2
|1524>    1      1.600000      -9.504310  2
|1525>    2      0.320000      -0.151370  2
|1526>   f 1
|1527>    1      1.000000000    0.000000000 2
|1528> end
|1529> Ti>    4.00000000000    0.00000000000   -7.40273383991    5.23594786729
|1530> NewECP
|1531> N_core 0
|1532>   lmax f
|1533>   s 2
|1534>    1      0.860000       9.191690  2
|1535>    2      0.172000       0.008301  2
|1536>   p 2
|1537>    1      0.860000      17.997720  2
|1538>    2      0.172000      -0.032600  2
|1539>   d 2
|1540>    1      1.600000      -9.504310  2
|1541>    2      0.320000      -0.151370  2
|1542>   f 1
|1543>    1      1.000000000    0.000000000 2
|1544> end
|1545> Ti>    4.00000000000    0.00000000000    8.88328060789    1.98192821856
|1546> NewECP
|1547> N_core 0
|1548>   lmax f
|1549>   s 2
|1550>    1      0.860000       9.191690  2
|1551>    2      0.172000       0.008301  2
|1552>   p 2
|1553>    1      0.860000      17.997720  2
|1554>    2      0.172000      -0.032600  2
|1555>   d 2
|1556>    1      1.600000      -9.504310  2
|1557>    2      0.320000      -0.151370  2
|1558>   f 1
|1559>    1      1.000000000    0.000000000 2
|1560> end
|1561> Ti>    4.00000000000    0.00000000000   -8.88328060789    1.98192821856
|1562> NewECP
|1563> N_core 0
|1564>   lmax f
|1565>   s 2
|1566>    1      0.860000       9.191690  2
|1567>    2      0.172000       0.008301  2
|1568>   p 2
|1569>    1      0.860000      17.997720  2
|1570>    2      0.172000      -0.032600  2
|1571>   d 2
|1572>    1      1.600000      -9.504310  2
|1573>    2      0.320000      -0.151370  2
|1574>   f 1
|1575>    1      1.000000000    0.000000000 2
|1576> end
|1577> Ti>    4.00000000000   -3.25401964873    1.48054676798    8.48996751602
|1578> NewECP
|1579> N_core 0
|1580>   lmax f
|1581>   s 2
|1582>    1      0.860000       9.191690  2
|1583>    2      0.172000       0.008301  2
|1584>   p 2
|1585>    1      0.860000      17.997720  2
|1586>    2      0.172000      -0.032600  2
|1587>   d 2
|1588>    1      1.600000      -9.504310  2
|1589>    2      0.320000      -0.151370  2
|1590>   f 1
|1591>    1      1.000000000    0.000000000 2
|1592> end
|1593> Ti>    4.00000000000    3.25401964873    1.48054676798    8.48996751602
|1594> NewECP
|1595> N_core 0
|1596>   lmax f
|1597>   s 2
|1598>    1      0.860000       9.191690  2
|1599>    2      0.172000       0.008301  2
|1600>   p 2
|1601>    1      0.860000      17.997720  2
|1602>    2      0.172000      -0.032600  2
|1603>   d 2
|1604>    1      1.600000      -9.504310  2
|1605>    2      0.320000      -0.151370  2
|1606>   f 1
|1607>    1      1.000000000    0.000000000 2
|1608> end
|1609> Ti>    4.00000000000    3.25401964873   -1.48054676798    8.48996751602
|1610> NewECP
|1611> N_core 0
|1612>   lmax f
|1613>   s 2
|1614>    1      0.860000       9.191690  2
|1615>    2      0.172000       0.008301  2
|1616>   p 2
|1617>    1      0.860000      17.997720  2
|1618>    2      0.172000      -0.032600  2
|1619>   d 2
|1620>    1      1.600000      -9.504310  2
|1621>    2      0.320000      -0.151370  2
|1622>   f 1
|1623>    1      1.000000000    0.000000000 2
|1624> end
|1625> Ti>    4.00000000000   -3.25401964873   -1.48054676798    8.48996751602
|1626> NewECP
|1627> N_core 0
|1628>   lmax f
|1629>   s 2
|1630>    1      0.860000       9.191690  2
|1631>    2      0.172000       0.008301  2
|1632>   p 2
|1633>    1      0.860000      17.997720  2
|1634>    2      0.172000      -0.032600  2
|1635>   d 2
|1636>    1      1.600000      -9.504310  2
|1637>    2      0.320000      -0.151370  2
|1638>   f 1
|1639>    1      1.000000000    0.000000000 2
|1640> end
|1641> Ti>    4.00000000000   -3.25401964873    7.40273383991   -4.52611107891
|1642> NewECP
|1643> N_core 0
|1644>   lmax f
|1645>   s 2
|1646>    1      0.860000       9.191690  2
|1647>    2      0.172000       0.008301  2
|1648>   p 2
|1649>    1      0.860000      17.997720  2
|1650>    2      0.172000      -0.032600  2
|1651>   d 2
|1652>    1      1.600000      -9.504310  2
|1653>    2      0.320000      -0.151370  2
|1654>   f 1
|1655>    1      1.000000000    0.000000000 2
|1656> end
|1657> Ti>    4.00000000000    3.25401964873    7.40273383991   -4.52611107891
|1658> NewECP
|1659> N_core 0
|1660>   lmax f
|1661>   s 2
|1662>    1      0.860000       9.191690  2
|1663>    2      0.172000       0.008301  2
|1664>   p 2
|1665>    1      0.860000      17.997720  2
|1666>    2      0.172000      -0.032600  2
|1667>   d 2
|1668>    1      1.600000      -9.504310  2
|1669>    2      0.320000      -0.151370  2
|1670>   f 1
|1671>    1      1.000000000    0.000000000 2
|1672> end
|1673> Ti>    4.00000000000    3.25401964873   -7.40273383991   -4.52611107891
|1674> NewECP
|1675> N_core 0
|1676>   lmax f
|1677>   s 2
|1678>    1      0.860000       9.191690  2
|1679>    2      0.172000       0.008301  2
|1680>   p 2
|1681>    1      0.860000      17.997720  2
|1682>    2      0.172000      -0.032600  2
|1683>   d 2
|1684>    1      1.600000      -9.504310  2
|1685>    2      0.320000      -0.151370  2
|1686>   f 1
|1687>    1      1.000000000    0.000000000 2
|1688> end
|1689> Ti>    4.00000000000   -3.25401964873   -7.40273383991   -4.52611107891
|1690> NewECP
|1691> N_core 0
|1692>   lmax f
|1693>   s 2
|1694>    1      0.860000       9.191690  2
|1695>    2      0.172000       0.008301  2
|1696>   p 2
|1697>    1      0.860000      17.997720  2
|1698>    2      0.172000      -0.032600  2
|1699>   d 2
|1700>    1      1.600000      -9.504310  2
|1701>    2      0.320000      -0.151370  2
|1702>   f 1
|1703>    1      1.000000000    0.000000000 2
|1704> end
|1705> Ti>    4.00000000000   -3.25401964873    8.88328060789   -1.27209143018
|1706> NewECP
|1707> N_core 0
|1708>   lmax f
|1709>   s 2
|1710>    1      0.860000       9.191690  2
|1711>    2      0.172000       0.008301  2
|1712>   p 2
|1713>    1      0.860000      17.997720  2
|1714>    2      0.172000      -0.032600  2
|1715>   d 2
|1716>    1      1.600000      -9.504310  2
|1717>    2      0.320000      -0.151370  2
|1718>   f 1
|1719>    1      1.000000000    0.000000000 2
|1720> end
|1721> Ti>    4.00000000000    3.25401964873    8.88328060789   -1.27209143018
|1722> NewECP
|1723> N_core 0
|1724>   lmax f
|1725>   s 2
|1726>    1      0.860000       9.191690  2
|1727>    2      0.172000       0.008301  2
|1728>   p 2
|1729>    1      0.860000      17.997720  2
|1730>    2      0.172000      -0.032600  2
|1731>   d 2
|1732>    1      1.600000      -9.504310  2
|1733>    2      0.320000      -0.151370  2
|1734>   f 1
|1735>    1      1.000000000    0.000000000 2
|1736> end
|1737> Ti>    4.00000000000    3.25401964873   -8.88328060789   -1.27209143018
|1738> NewECP
|1739> N_core 0
|1740>   lmax f
|1741>   s 2
|1742>    1      0.860000       9.191690  2
|1743>    2      0.172000       0.008301  2
|1744>   p 2
|1745>    1      0.860000      17.997720  2
|1746>    2      0.172000      -0.032600  2
|1747>   d 2
|1748>    1      1.600000      -9.504310  2
|1749>    2      0.320000      -0.151370  2
|1750>   f 1
|1751>    1      1.000000000    0.000000000 2
|1752> end
|1753> Ti>    4.00000000000   -3.25401964873   -8.88328060789   -1.27209143018
|1754> NewECP
|1755> N_core 0
|1756>   lmax f
|1757>   s 2
|1758>    1      0.860000       9.191690  2
|1759>    2      0.172000       0.008301  2
|1760>   p 2
|1761>    1      0.860000      17.997720  2
|1762>    2      0.172000      -0.032600  2
|1763>   d 2
|1764>    1      1.600000      -9.504310  2
|1765>    2      0.320000      -0.151370  2
|1766>   f 1
|1767>    1      1.000000000    0.000000000 2
|1768> end
|1769> Ti>    4.00000000000    0.00000000000    8.88328060789   -4.52611107891
|1770> NewECP
|1771> N_core 0
|1772>   lmax f
|1773>   s 2
|1774>    1      0.860000       9.191690  2
|1775>    2      0.172000       0.008301  2
|1776>   p 2
|1777>    1      0.860000      17.997720  2
|1778>    2      0.172000      -0.032600  2
|1779>   d 2
|1780>    1      1.600000      -9.504310  2
|1781>    2      0.320000      -0.151370  2
|1782>   f 1
|1783>    1      1.000000000    0.000000000 2
|1784> end
|1785> Ti>    4.00000000000    0.00000000000   -8.88328060789   -4.52611107891
|1786> NewECP
|1787> N_core 0
|1788>   lmax f
|1789>   s 2
|1790>    1      0.860000       9.191690  2
|1791>    2      0.172000       0.008301  2
|1792>   p 2
|1793>    1      0.860000      17.997720  2
|1794>    2      0.172000      -0.032600  2
|1795>   d 2
|1796>    1      1.600000      -9.504310  2
|1797>    2      0.320000      -0.151370  2
|1798>   f 1
|1799>    1      1.000000000    0.000000000 2
|1800> end
|1801> Ti>    4.00000000000   -3.25401964873    5.92218707193   -7.78013072764
|1802> NewECP
|1803> N_core 0
|1804>   lmax f
|1805>   s 2
|1806>    1      0.860000       9.191690  2
|1807>    2      0.172000       0.008301  2
|1808>   p 2
|1809>    1      0.860000      17.997720  2
|1810>    2      0.172000      -0.032600  2
|1811>   d 2
|1812>    1      1.600000      -9.504310  2
|1813>    2      0.320000      -0.151370  2
|1814>   f 1
|1815>    1      1.000000000    0.000000000 2
|1816> end
|1817> Ti>    4.00000000000    3.25401964873    5.92218707193   -7.78013072764
|1818> NewECP
|1819> N_core 0
|1820>   lmax f
|1821>   s 2
|1822>    1      0.860000       9.191690  2
|1823>    2      0.172000       0.008301  2
|1824>   p 2
|1825>    1      0.860000      17.997720  2
|1826>    2      0.172000      -0.032600  2
|1827>   d 2
|1828>    1      1.600000      -9.504310  2
|1829>    2      0.320000      -0.151370  2
|1830>   f 1
|1831>    1      1.000000000    0.000000000 2
|1832> end
|1833> Ti>    4.00000000000    3.25401964873   -5.92218707193   -7.78013072764
|1834> NewECP
|1835> N_core 0
|1836>   lmax f
|1837>   s 2
|1838>    1      0.860000       9.191690  2
|1839>    2      0.172000       0.008301  2
|1840>   p 2
|1841>    1      0.860000      17.997720  2
|1842>    2      0.172000      -0.032600  2
|1843>   d 2
|1844>    1      1.600000      -9.504310  2
|1845>    2      0.320000      -0.151370  2
|1846>   f 1
|1847>    1      1.000000000    0.000000000 2
|1848> end
|1849> Ti>    4.00000000000   -3.25401964873   -5.92218707193   -7.78013072764
|1850> NewECP
|1851> N_core 0
|1852>   lmax f
|1853>   s 2
|1854>    1      0.860000       9.191690  2
|1855>    2      0.172000       0.008301  2
|1856>   p 2
|1857>    1      0.860000      17.997720  2
|1858>    2      0.172000      -0.032600  2
|1859>   d 2
|1860>    1      1.600000      -9.504310  2
|1861>    2      0.320000      -0.151370  2
|1862>   f 1
|1863>    1      1.000000000    0.000000000 2
|1864> end
|1865> Ti>    4.00000000000    0.00000000000    7.40273383991   -7.78013072764
|1866> NewECP
|1867> N_core 0
|1868>   lmax f
|1869>   s 2
|1870>    1      0.860000       9.191690  2
|1871>    2      0.172000       0.008301  2
|1872>   p 2
|1873>    1      0.860000      17.997720  2
|1874>    2      0.172000      -0.032600  2
|1875>   d 2
|1876>    1      1.600000      -9.504310  2
|1877>    2      0.320000      -0.151370  2
|1878>   f 1
|1879>    1      1.000000000    0.000000000 2
|1880> end
|1881> Ti>    4.00000000000    0.00000000000   -7.40273383991   -7.78013072764
|1882> NewECP
|1883> N_core 0
|1884>   lmax f
|1885>   s 2
|1886>    1      0.860000       9.191690  2
|1887>    2      0.172000       0.008301  2
|1888>   p 2
|1889>    1      0.860000      17.997720  2
|1890>    2      0.172000      -0.032600  2
|1891>   d 2
|1892>    1      1.600000      -9.504310  2
|1893>    2      0.320000      -0.151370  2
|1894>   f 1
|1895>    1      1.000000000    0.000000000 2
|1896> end
|1897>   end
|1898> endd                         ****END OF INPUT****

CARTESIAN COORDINATES (ANGSTROEM)
---------------------------------
  O      0.000000    0.000000    0.000000
  Ti     0.000000    1.480547   -1.272091
  Ti     0.000000   -1.480547   -1.272091
  Ti     0.000000    0.000000    1.981928
  O      0.000000    2.961094    0.000000
  O      0.000000   -2.961094    0.000000
  O     -0.000000    2.961094   -2.544183
  O     -0.000000   -2.961094   -2.544183
  O     -0.000000    0.000000    3.963856
  Ti>   -3.254020    0.000000   -1.272091
  Ti>    3.254020    0.000000   -1.272091
  Ti>    0.000000    2.961094    1.981928
  Ti>    0.000000   -2.961094    1.981928
  Ti>   -3.254020    1.480547    1.981928
  Ti>    3.254020    1.480547    1.981928
  Ti>    3.254020   -1.480547    1.981928
  Ti>   -3.254020   -1.480547    1.981928
  Ti>    0.000000    0.000000   -4.526111
  Ti>   -3.254020    2.961094   -1.272091
  Ti>    3.254020    2.961094   -1.272091
  Ti>    3.254020   -2.961094   -1.272091
  Ti>   -3.254020   -2.961094   -1.272091
  Ti>    0.000000    4.441640   -1.272091
  Ti>    0.000000   -4.441640   -1.272091
  Ti>    0.000000    2.961094   -4.526111
  Ti>    0.000000   -2.961094   -4.526111
  Ti>    0.000000    1.480547    5.235948
  Ti>    0.000000   -1.480547    5.235948
  Ti>   -3.254020    1.480547   -4.526111
  Ti>    3.254020    1.480547   -4.526111
  Ti>    3.254020   -1.480547   -4.526111
  Ti>   -3.254020   -1.480547   -4.526111
  Ti>   -3.254020    4.441640    1.981928
  Ti>    3.254020    4.441640    1.981928
  Ti>    3.254020   -4.441640    1.981928
  Ti>   -3.254020   -4.441640    1.981928
  Ti>   -3.254020    0.000000    5.235948
  Ti>    3.254020    0.000000    5.235948
  Ti>    0.000000    5.922187    1.981928
  Ti>    0.000000   -5.922187    1.981928
  Ti>   -6.508039    1.480547   -1.272091
  Ti>    6.508039    1.480547   -1.272091
  Ti>    6.508039   -1.480547   -1.272091
  Ti>   -6.508039   -1.480547   -1.272091
  Ti>   -6.508039    0.000000    1.981928
  Ti>    6.508039    0.000000    1.981928
  Ti>   -3.254020    2.961094    5.235948
  Ti>    3.254020    2.961094    5.235948
  Ti>    3.254020   -2.961094    5.235948
  Ti>   -3.254020   -2.961094    5.235948
  Ti>    0.000000    4.441640    5.235948
  Ti>    0.000000   -4.441640    5.235948
  Ti>   -3.254020    5.922187   -1.272091
  Ti>    3.254020    5.922187   -1.272091
  Ti>    3.254020   -5.922187   -1.272091
  Ti>   -3.254020   -5.922187   -1.272091
  Ti>   -3.254020    4.441640   -4.526111
  Ti>    3.254020    4.441640   -4.526111
  Ti>    3.254020   -4.441640   -4.526111
  Ti>   -3.254020   -4.441640   -4.526111
  Ti>   -6.508039    2.961094    1.981928
  Ti>    6.508039    2.961094    1.981928
  Ti>    6.508039   -2.961094    1.981928
  Ti>   -6.508039   -2.961094    1.981928
  Ti>    0.000000    5.922187   -4.526111
  Ti>    0.000000   -5.922187   -4.526111
  Ti>    0.000000    7.402734   -1.272091
  Ti>    0.000000   -7.402734   -1.272091
  Ti>    0.000000    1.480547   -7.780131
  Ti>    0.000000   -1.480547   -7.780131
  Ti>   -6.508039    4.441640   -1.272091
  Ti>    6.508039    4.441640   -1.272091
  Ti>    6.508039   -4.441640   -1.272091
  Ti>   -6.508039   -4.441640   -1.272091
  Ti>   -3.254020    7.402734    1.981928
  Ti>    3.254020    7.402734    1.981928
  Ti>    3.254020   -7.402734    1.981928
  Ti>   -3.254020   -7.402734    1.981928
  Ti>   -3.254020    0.000000   -7.780131
  Ti>    3.254020    0.000000   -7.780131
  Ti>   -6.508039    2.961094   -4.526111
  Ti>    6.508039    2.961094   -4.526111
  Ti>    6.508039   -2.961094   -4.526111
  Ti>   -6.508039   -2.961094   -4.526111
  Ti>   -6.508039    1.480547    5.235948
  Ti>    6.508039    1.480547    5.235948
  Ti>    6.508039   -1.480547    5.235948
  Ti>   -6.508039   -1.480547    5.235948
  Ti>    0.000000    0.000000    8.489968
  Ti>   -3.254020    5.922187    5.235948
  Ti>    3.254020    5.922187    5.235948
  Ti>    3.254020   -5.922187    5.235948
  Ti>   -3.254020   -5.922187    5.235948
  Ti>   -3.254020    2.961094   -7.780131
  Ti>    3.254020    2.961094   -7.780131
  Ti>    3.254020   -2.961094   -7.780131
  Ti>   -3.254020   -2.961094   -7.780131
  Ti>    0.000000    4.441640   -7.780131
  Ti>    0.000000   -4.441640   -7.780131
  Ti>    0.000000    2.961094    8.489968
  Ti>    0.000000   -2.961094    8.489968
  Ti>    0.000000    7.402734    5.235948
  Ti>    0.000000   -7.402734    5.235948
  Ti>    0.000000    8.883281    1.981928
  Ti>    0.000000   -8.883281    1.981928
  Ti>   -3.254020    1.480547    8.489968
  Ti>    3.254020    1.480547    8.489968
  Ti>    3.254020   -1.480547    8.489968
  Ti>   -3.254020   -1.480547    8.489968
  Ti>   -3.254020    7.402734   -4.526111
  Ti>    3.254020    7.402734   -4.526111
  Ti>    3.254020   -7.402734   -4.526111
  Ti>   -3.254020   -7.402734   -4.526111
  Ti>   -3.254020    8.883281   -1.272091
  Ti>    3.254020    8.883281   -1.272091
  Ti>    3.254020   -8.883281   -1.272091
  Ti>   -3.254020   -8.883281   -1.272091
  Ti>    0.000000    8.883281   -4.526111
  Ti>    0.000000   -8.883281   -4.526111
  Ti>   -3.254020    5.922187   -7.780131
  Ti>    3.254020    5.922187   -7.780131
  Ti>    3.254020   -5.922187   -7.780131
  Ti>   -3.254020   -5.922187   -7.780131
  Ti>    0.000000    7.402734   -7.780131
  Ti>    0.000000   -7.402734   -7.780131

 Total Charge           Charge          ....    0
 Multiplicity           Mult            ....    1
 Number of Electrons    NEL             ....  114
 Basis Dimension        Dim             ....  378

ORBITAL ENERGIES
----------------

  NO   OCC          E(Eh)            E(eV)
   0   2.0000    -177.734801     -4836.4098
   1   2.0000    -177.656939     -4834.2911
   2   2.0000    -177.656929     -4834.2908
   3   2.0000     -19.536633      -531.6188
   4   2.0000     -19.455903      -529.4220
   5   2.0000     -19.455840      -529.4203
   6   2.0000     -18.600151      -506.1358
   7   2.0000     -18.557516      -504.9757
   8   2.0000     -18.539075      -504.4739
   9   2.0000     -18.539070      -504.4738
  10   2.0000     -18.529225      -504.2058
  11   2.0000     -18.529224      -504.2058
  12   2.0000     -16.326421      -444.2645
  13   2.0000     -16.325072      -444.2278
  14   2.0000     -16.318199      -444.0408
  15   2.0000     -16.243760      -442.0152
  16   2.0000     -16.243754      -442.0150
  17   2.0000     -16.242561      -441.9826
  18   2.0000     -16.242556      -441.9824
  19   2.0000     -16.240704      -441.9320
  20   2.0000     -16.240703      -441.9320
  21   2.0000      -2.207384       -60.0660
  22   2.0000      -2.142960       -58.3129
  23   2.0000      -2.142456       -58.2992
  24   2.0000      -1.353073       -36.8190
  25   2.0000      -1.347231       -36.6600
  26   2.0000      -1.344711       -36.5914
  27   2.0000      -1.301652       -35.4198
  28   2.0000      -1.297391       -35.3038
  29   2.0000      -1.287640       -35.0385
  30   2.0000      -1.286172       -34.9985
  31   2.0000      -1.276408       -34.7328
  32   2.0000      -1.276058       -34.7233
  33   2.0000      -0.699763       -19.0415
  34   2.0000      -0.686673       -18.6853
  35   2.0000      -0.681200       -18.5364
  36   2.0000      -0.676183       -18.3999
  37   2.0000      -0.667538       -18.1646
  38   2.0000      -0.664467       -18.0811
  39   2.0000      -0.227014        -6.1774
  40   2.0000      -0.201568        -5.4849
  41   2.0000      -0.199794        -5.4367
  42   2.0000      -0.197408        -5.3718
  43   2.0000      -0.174779        -4.7560
  44   2.0000      -0.168587        -4.5875
  45   2.0000      -0.162775        -4.4293
  46   2.0000      -0.156619        -4.2618
  47   2.0000      -0.145141        -3.9495
  48   2.0000      -0.142264        -3.8712
  49   2.0000      -0.134496        -3.6598
  50   2.0000      -0.132133        -3.5955
  51   2.0000      -0.131338        -3.5739
  52   2.0000      -0.126636        -3.4459
  53   2.0000      -0.125042        -3.4026
  54   2.0000      -0.123829        -3.3696
  55   2.0000      -0.106120        -2.8877
  56   2.0000      -0.102631        -2.7927
  57   0.0000      -0.027844        -0.7577
  58   0.0000      -0.019110        -0.5200
  59   0.0000      -0.013563        -0.3691
  60   0.0000       0.004853         0.1321
  61   0.0000       0.019301         0.5252

MULLIKEN ATOMIC CHARGES
-----------------------
   0 O :   -0.382187
   1 Ti:    2.373595
   2 Ti:    2.373596
   3 Ti:    2.747744
   4 O :   -1.403428
   5 O :   -1.403428
   6 O :   -1.421796
   7 O :   -1.421796
   8 O :   -1.462299
   9 Q :    4.000000
  10 Q :    4.000000
  11 Q :    4.000000
  12 Q :    4.000000
  13 Q :    4.000000
  14 Q :    4.000000
  15 Q :    4.000000
  16 Q :    4.000000
  17 Q :    4.000000
  18 Q :    4.000000
  19 Q :    4.000000
  20 Q :    4.000000
  21 Q :    4.000000
  22 Q :    4.000000
  23 Q :    4.000000
  24 Q :    4.000000
  25 Q :    4.000000
  26 Q :    4.000000
  27 Q :    4.000000
  28 Q :    4.000000
  29 Q :    4.000000
  30 Q :    4.000000
  31 Q :    4.000000
  32 Q :    4.000000
  33 Q :    4.000000
  34 Q :    4.000000
  35 Q :    4.000000
  36 Q :    4.000000
  37 Q :    4.000000
  38 Q :    4.000000
  39 Q :    4.000000
  40 Q :    4.000000
  41 Q :    4.000000
  42 Q :    4.000000
  43 Q :    4.000000
  44 Q :    4.000000
  45 Q :    4.000000
  46 Q :    4.000000
  47 Q :    4.000000
  48 Q :    4.000000
  49 Q :    4.000000
  50 Q :    4.000000
  51 Q :    4.000000
  52 Q :    4.000000
  53 Q :    4.000000
  54 Q :    4.000000
  55 Q :    4.000000
  56 Q :    4.000000
  57 Q :    4.000000
  58 Q :    4.000000
  59 Q :    4.000000
  60 Q :    4.000000
  61 Q :    4.000000
  62 Q :    4.000000
  63 Q :    4.000000
  64 Q :    4.000000
  65 Q :    4.000000
  66 Q :    4.000000
  67 Q :    4.000000
  68 Q :    4.000000
  69 Q :    4.000000
  70 Q :    4.000000
  71 Q :    4.000000
  72 Q :    4.000000
  73 Q :    4.000000
  74 Q :    4.000000
  75 Q :    4.000000
  76 Q :    4.000000
  77 Q :    4.000000
  78 Q :    4.000000
  79 Q :    4.000000
  80 Q :    4.000000
  81 Q :    4.000000
  82 Q :    4.000000
  83 Q :    4.000000
  84 Q :    4.000000
  85 Q :    4.000000
  86 Q :    4.000000
  87 Q :    4.000000
  88 Q :    4.000000
  89 Q :    4.000000
  90 Q :    4.000000
  91 Q :    4.000000
  92 Q :    4.000000
  93 Q :    4.000000
  94 Q :    4.000000
  95 Q :    4.000000
  96 Q :    4.000000
  97 Q :    4.000000
  98 Q :    4.000000
  99 Q :    4.000000
 100 Q :    4.000000
 101 Q :    4.000000
 102 Q :    4.000000
 103 Q :    4.000000
 104 Q :    4.000000
 105 Q :    4.000000
 106 Q :    4.000000
 107 Q :    4.000000
 108 Q :    4.000000
 109 Q :    4.000000
 110 Q :    4.000000
 111 Q :    4.000000
 112 Q :    4.000000
 113 Q :    4.000000
 114 Q :    4.000000
 115 Q :    4.000000
 116 Q :    4.000000
 117 Q :    4.000000
 118 Q :    4.000000
 119 Q :    4.000000
 120 Q :    4.000000
 121 Q :    4.000000
 122 Q :    4.000000
 123 Q :    4.000000
 124 Q :    4.000000
Sum of atomic charges:  464.0000000

LOEWDIN ATOMIC CHARGES
----------------------
   0 O :    0.356131
   1 Ti:    1.122658
   2 Ti:    1.122658
   3 Ti:    1.946339
   4 O :   -0.887419
   5 O :   -0.887419
   6 O :   -0.923948
   7 O :   -0.923948
   8 O :   -0.925052
   9 Q :    4.000000
  10 Q :    4.000000
  11 Q :    4.000000
  12 Q :    4.000000
  13 Q :    4.000000
  14 Q :    4.000000
  15 Q :    4.000000
  16 Q :    4.000000
  17 Q :    4.000000
  18 Q :    4.000000
  19 Q :    4.000000
  20 Q :    4.000000
  21 Q :    4.000000
  22 Q :    4.000000
  23 Q :    4.000000
  24 Q :    4.000000
  25 Q :    4.000000
  26 Q :    4.000000
  27 Q :    4.000000
  28 Q :    4.000000
  29 Q :    4.000000
  30 Q :    4.000000
  31 Q :    4.000000
  32 Q :    4.000000
  33 Q :    4.000000
  34 Q :    4.000000
  35 Q :    4.000000
  36 Q :    4.000000
  37 Q :    4.000000
  38 Q :    4.000000
  39 Q :    4.000000
  40 Q :    4.000000
  41 Q :    4.000000
  42 Q :    4.000000
  43 Q :    4.000000
  44 Q :    4.000000
  45 Q :    4.000000
  46 Q :    4.000000
  47 Q :    4.000000
  48 Q :    4.000000
  49 Q :    4.000000
  50 Q :    4.000000
  51 Q :    4.000000
  52 Q :    4.000000
  53 Q :    4.000000
  54 Q :    4.000000
  55 Q :    4.000000
  56 Q :    4.000000
  57 Q :    4.000000
  58 Q :    4.000000
  59 Q :    4.000000
  60 Q :    4.000000
  61 Q :    4.000000
  62 Q :    4.000000
  63 Q :    4.000000
  64 Q :    4.000000
  65 Q :    4.000000
  66 Q :    4.000000
  67 Q :    4.000000
  68 Q :    4.000000
  69 Q :    4.000000
  70 Q :    4.000000
  71 Q :    4.000000
  72 Q :    4.000000
  73 Q :    4.000000
  74 Q :    4.000000
  75 Q :    4.000000
  76 Q :    4.000000
  77 Q :    4.000000
  78 Q :    4.000000
  79 Q :    4.000000
  80 Q :    4.000000
  81 Q :    4.000000
  82 Q :    4.000000
  83 Q :    4.000000
  84 Q :    4.000000
  85 Q :    4.000000
  86 Q :    4.000000
  87 Q :    4.000000
  88 Q :    4.000000
  89 Q :    4.000000
  90 Q :    4.000000
  91 Q :    4.000000
  92 Q :    4.000000
  93 Q :    4.000000
  94 Q :    4.000000
  95 Q :    4.000000
  96 Q :    4.000000
  97 Q :    4.000000
  98 Q :    4.000000
  99 Q :    4.000000
 100 Q :    4.000000
 101 Q :    4.000000
 102 Q :    4.000000
 103 Q :    4.000000
 104 Q :    4.000000
 105 Q :    4.000000
 106 Q :    4.000000
 107 Q :    4.000000
 108 Q :    4.000000
 109 Q :    4.000000
 110 Q :    4.000000
 111 Q :    4.000000
 112 Q :    4.000000
 113 Q :    4.000000
 114 Q :    4.000000
 115 Q :    4.000000
 116 Q :    4.000000
 117 Q :    4.000000
 118 Q :    4.000000
 119 Q :    4.000000
 120 Q :    4.000000
 121 Q :    4.000000
 122 Q :    4.000000
 123 Q :    4.000000
 124 Q :    4.000000

  Mayer bond orders larger than 0.100000
B(  0-O ,  1-Ti) :   0.6651 B(  0-O ,  2-Ti) :   0.6651 B(  0-O ,  3-Ti) :   0.9556
B(  1-Ti,  4-O ) :   0.9402 B(  1-Ti,  6-O ) :   0.8522 B(  2-Ti,  5-O ) :   0.9402
B(  2-Ti,  7-O ) :   0.8522 B(  3-Ti,  8-O ) :   0.8485

FINAL SINGLE POINT ENERGY    -10344.869278934788

DIPOLE MOMENT
-------------
                                X             Y             Z
Electronic contribution:      0.00000      -0.00000       0.94530
Nuclear contribution   :      0.00000       0.00000    -213.17247
                        -----------------------------------------
Total Dipole Moment    :      0.00000      -0.00000    -212.22717
                        -----------------------------------------
Magnitude (a.u.)       :    212.22717
Magnitude (Debye)      :    539.43860

Rotational constants in cm-1:     0.021861     0.021251     0.010776
Rotational constants in MHz :   655.386151   637.094706   323.055498

                             ****ORCA TERMINATED NORMALLY****
TOTAL RUN TIME: 0 days 0 hours 0 minutes 37 seconds 540 msec
