                         Program Version 5.0.2 -  RELEASE  -
|  1> ! VeryTightSCF DLPNO-B2PLYP NormalPNO RIJCOSX SlowConv DIIS NOTRAH
|  2> %maxcore 4000
|  3> %pal
|  4>   nprocs 4
|  5> end
|  6> %method
|  7>    Method DFT
|  8>   RI on
|  9>   RunTyp Energy
| 10> end
| 11> %basis
| 12>   Basis "aug-cc-pVTZ"
| 13>   Aux "AutoAux"
| 14>   AuxC "AutoAux"
| 15> end
| 16> %scf
| 17>   HFTyp uks
| 18>   Guess Hueckel
| 19>   AutoStart True
| 20>   SCFMode Direct
| 21>   MaxIter 1000
| 22>   sthresh 1e-6
| 23> end
| 24> %coords
| 25>   CTyp xyz
| 26>   Mult 3
| 27>   Units angs
| 28>   coords
| 29> O                      0.00000000000    0.00000000000    0.00000000000
| 30>   end
| 31> end
| 32>
| 33>                          ****END OF INPUT****

CARTESIAN COORDINATES (ANGSTROEM)
---------------------------------
  O      0.000000    0.000000    0.000000

 Total Charge           Charge          ....    0
 Multiplicity           Mult            ....    3
 Number of Electrons    NEL             ....    8
 Basis Dimension        Dim             ....   46

ORBITAL ENERGIES
----------------
                 SPIN UP ORBITALS
  NO   OCC          E(Eh)            E(eV)
   0   1.0000     -19.879589      -540.9511
   1   1.0000      -1.185933       -32.2709
   2   1.0000      -0.564763       -15.3680
   3   1.0000      -0.564763       -15.3680
   4   1.0000      -0.480755       -13.0820
   5   0.0000       0.101531         2.7628
   6   0.0000       0.119923         3.2633
   7   0.0000       0.119923         3.2633
   8   0.0000       0.125145         3.4054
   9   0.0000       0.542702        14.7677

                 SPIN DOWN ORBITALS
  NO   OCC          E(Eh)            E(eV)
   0   1.0000     -19.818154      -539.2794
   1   1.0000      -0.957023       -26.0419
   2   1.0000      -0.417005       -11.3473
   3   0.0000      -0.072893        -1.9835
   4   0.0000      -0.072892        -1.9835
   5   0.0000       0.112224         3.0538
   6   0.0000       0.128185         3.4881
   7   0.0000       0.149529         4.0689

MULLIKEN ATOMIC CHARGES AND SPIN POPULATIONS
--------------------------------------------
   0 O :    0.000000    2.000000
Sum of atomic charges         :    0.0000000

LOEWDIN ATOMIC CHARGES AND SPIN POPULATIONS
-------------------------------------------
   0 O :    0.000000    2.000000

MP2 TOTAL ENERGY:      -75.050948105 Eh
FINAL SINGLE POINT ENERGY       -75.050948104577

DIPOLE MOMENT
-------------
                                X             Y             Z
Electronic contribution:     -0.00000      -0.00000      -0.00000
Nuclear contribution   :      0.00000       0.00000       0.00000
                        -----------------------------------------
Total Dipole Moment    :     -0.00000      -0.00000      -0.00000
                        -----------------------------------------
Magnitude (a.u.)       :      0.00000
Magnitude (Debye)      :      0.00000

Rotational constants in cm-1:     0.000000     0.000000     0.000000
Rotational constants in MHz :     0.000000     0.000000     0.000000

                             ****ORCA TERMINATED NORMALLY****
TOTAL RUN TIME: 0 days 0 hours 0 minutes 2 seconds 178 msec
