                         Program Version 5.0.1 -  RELEASE  -
|  1> ! VeryTightSCF DLPNO-CCSD(T) NormalPNO RIJCOSX SlowConv DIIS NOTRAH
|  2> %maxcore 4000
|  3> %pal
|  4>   nprocs 4
|  5> end
|  6> %method
|  7>   Method HF
|  8>   RI on
|  9>   RunTyp Energy
| 10> end
| 11> %basis
| 12>   Basis "aug-cc-pVQZ"
| 13>   Aux "def2/J"
| 14>   AuxC "AutoAux"
| 15> end
| 16> %scf
| 17>   HFTyp uhf
| 18>   Guess Hueckel
| 19>   AutoStart True
| 20>   SCFMode Direct
| 21>   MaxIter 1000
| 22>   sthresh 1e-6
| 23> end
| 24> %coords
| 25>   CTyp xyz
| 26>   Mult 3
| 27>   Units angs
| 28>   coords
| 29> O                      0.00000000000    0.00000000000    0.00000000000
| 30>   end
| 31> end
| 32>
| 33>                          ****END OF INPUT****

CARTESIAN COORDINATES (ANGSTROEM)
---------------------------------
  O      0.000000    0.000000    0.000000

 Total Charge           Charge          ....    0
 Multiplicity           Mult            ....    3
 Number of Electrons    NEL             ....    8
 Basis Dimension        Dim             ....   80

ORBITAL ENERGIES
----------------
                 SPIN UP ORBITALS
  NO   OCC          E(Eh)            E(eV)
   0   1.0000     -20.708524      -563.5076
   1   1.0000      -1.418684       -38.6044
   2   1.0000      -0.711073       -19.3493
   3   1.0000      -0.711073       -19.3493
   4   1.0000      -0.611672       -16.6444
   5   0.0000       0.132196         3.5972
   6   0.0000       0.132196         3.5972
   7   0.0000       0.136072         3.7027
   8   0.0000       0.139910         3.8072
   9   0.0000       0.460928        12.5425

                 SPIN DOWN ORBITALS
  NO   OCC          E(Eh)            E(eV)
   0   1.0000     -20.629820      -561.3660
   1   1.0000      -1.075954       -29.2782
   2   1.0000      -0.521733       -14.1971
   3   0.0000       0.062437         1.6990
   4   0.0000       0.062437         1.6990
   5   0.0000       0.143070         3.8931
   6   0.0000       0.146743         3.9931
   7   0.0000       0.197744         5.3809

MULLIKEN ATOMIC CHARGES AND SPIN POPULATIONS
--------------------------------------------
   0 O :   -0.000000    2.000000
Sum of atomic charges         :   -0.0000000

LOEWDIN ATOMIC CHARGES AND SPIN POPULATIONS
-------------------------------------------
   0 O :   -0.000000    2.000000

E(0)                                       ...    -74.810969388
E(0)                                       ...    -74.810969388
E(CORR)(strong-pairs)                      ...     -0.179010231
E(CORR)(weak-pairs)                        ...     -0.001371553
E(CORR)(corrected)                         ...     -0.180381783
E(TOT)                                     ...    -74.991351172
E(CCSD(T))                                 ...    -74.995158083
FINAL SINGLE POINT ENERGY       -74.995158083429

DIPOLE MOMENT
-------------
                                X             Y             Z
Electronic contribution:     -0.00000       0.00000      -0.00000
Nuclear contribution   :      0.00000       0.00000       0.00000
                        -----------------------------------------
Total Dipole Moment    :     -0.00000       0.00000      -0.00000
                        -----------------------------------------
Magnitude (a.u.)       :      0.00000
Magnitude (Debye)      :      0.00000

Rotational constants in cm-1:     0.000000     0.000000     0.000000
Rotational constants in MHz :     0.000000     0.000000     0.000000

                             ****ORCA TERMINATED NORMALLY****
TOTAL RUN TIME: 0 days 0 hours 0 minutes 16 seconds 108 msec
