                         Program Version 5.0.1 -  RELEASE  -
|  1> ! NormalSCF SlowConv DIIS NOTRAH
|  2> %maxcore 18000
|  3> %pal
|  4>   nprocs 16
|  5> end
|  6> %pointcharges "orca.bq"
|  7> %method
|  8>   Method DFT
|  9>   Functional PBE
| 10>   RI on
| 11>   RunTyp Energy
| 12> end
| 13> %basis
| 14>   Basis "def2-SVP"
| 15>   Aux "def2/J"
| 16> end
| 17> %scf
| 18>   HFTyp rks
| 19>   Guess Hueckel
| 20>   AutoStart True
| 21>   SCFMode Direct
| 22>   MaxIter 1000
| 23>   sthresh 1e-6
| 24> end
| 25> %coords
| 26>   CTyp xyz
| 27>   Mult 1
| 28>   Units angs
| 29>   Charge 0
| 30>   coords
| 31> O:                      0.00000000000    0.00000000000    0.00000000000
| 32> Ti                      0.00000000000    1.48054676798   -1.27209143018
| 33> Ti                      0.00000000000   -1.48054676798   -1.27209143018
| 34> Ti                      0.00000000000    0.00000000000    1.98192821856
| 35> O                      -0.00000000000    0.00000000000   -2.54418286035
| 36> O                      -1.27209143018    1.48054676798    1.98192821856
| 37> O                       1.27209143018    1.48054676798    1.98192821856
| 38> O                       1.27209143018   -1.48054676798    1.98192821856
| 39> O                      -1.27209143018   -1.48054676798    1.98192821856
| 40> Ti>    4.00000000000   -3.25401964873    0.00000000000   -1.27209143018
| 41> NewECP
| 42> N_core 0
| 43>   lmax f
| 44>   s 2
| 45>    1      0.860000       9.191690  2
| 46>    2      0.172000       0.008301  2
| 47>   p 2
| 48>    1      0.860000      17.997720  2
| 49>    2      0.172000      -0.032600  2
| 50>   d 2
| 51>    1      1.600000      -9.504310  2
| 52>    2      0.320000      -0.151370  2
| 53>   f 1
| 54>    1      1.000000000    0.000000000 2
| 55> end
| 56> Ti>    4.00000000000    3.25401964873    0.00000000000   -1.27209143018
| 57> NewECP
| 58> N_core 0
| 59>   lmax f
| 60>   s 2
| 61>    1      0.860000       9.191690  2
| 62>    2      0.172000       0.008301  2
| 63>   p 2
| 64>    1      0.860000      17.997720  2
| 65>    2      0.172000      -0.032600  2
| 66>   d 2
| 67>    1      1.600000      -9.504310  2
| 68>    2      0.320000      -0.151370  2
| 69>   f 1
| 70>    1      1.000000000    0.000000000 2
| 71> end
| 72> Ti>    4.00000000000    0.00000000000    2.96109353596    1.98192821856
| 73> NewECP
| 74> N_core 0
| 75>   lmax f
| 76>   s 2
| 77>    1      0.860000       9.191690  2
| 78>    2      0.172000       0.008301  2
| 79>   p 2
| 80>    1      0.860000      17.997720  2
| 81>    2      0.172000      -0.032600  2
| 82>   d 2
| 83>    1      1.600000      -9.504310  2
| 84>    2      0.320000      -0.151370  2
| 85>   f 1
| 86>    1      1.000000000    0.000000000 2
| 87> end
| 88> Ti>    4.00000000000    0.00000000000   -2.96109353596    1.98192821856
| 89> NewECP
| 90> N_core 0
| 91>   lmax f
| 92>   s 2
| 93>    1      0.860000       9.191690  2
| 94>    2      0.172000       0.008301  2
| 95>   p 2
| 96>    1      0.860000      17.997720  2
| 97>    2      0.172000      -0.032600  2
| 98>   d 2
| 99>    1      1.600000      -9.504310  2
|100>    2      0.320000      -0.151370  2
|101>   f 1
|102>    1      1.000000000    0.000000000 2
|103> end
|104> Ti>    4.00000000000   -3.25401964873    1.48054676798    1.98192821856
|105> NewECP
|106> N_core 0
|107>   lmax f
|108>   s 2
|109>    1      0.860000       9.191690  2
|110>    2      0.172000       0.008301  2
|111>   p 2
|112>    1      0.860000      17.997720  2
|113>    2      0.172000      -0.032600  2
|114>   d 2
|115>    1      1.600000      -9.504310  2
|116>    2      0.320000      -0.151370  2
|117>   f 1
|118>    1      1.000000000    0.000000000 2
|119> end
|120> Ti>    4.00000000000    3.25401964873    1.48054676798    1.98192821856
|121> NewECP
|122> N_core 0
|123>   lmax f
|124>   s 2
|125>    1      0.860000       9.191690  2
|126>    2      0.172000       0.008301  2
|127>   p 2
|128>    1      0.860000      17.997720  2
|129>    2      0.172000      -0.032600  2
|130>   d 2
|131>    1      1.600000      -9.504310  2
|132>    2      0.320000      -0.151370  2
|133>   f 1
|134>    1      1.000000000    0.000000000 2
|135> end
|136> Ti>    4.00000000000    3.25401964873   -1.48054676798    1.98192821856
|137> NewECP
|138> N_core 0
|139>   lmax f
|140>   s 2
|141>    1      0.860000       9.191690  2
|142>    2      0.172000       0.008301  2
|143>   p 2
|144>    1      0.860000      17.997720  2
|145>    2      0.172000      -0.032600  2
|146>   d 2
|147>    1      1.600000      -9.504310  2
|148>    2      0.320000      -0.151370  2
|149>   f 1
|150>    1      1.000000000    0.000000000 2
|151> end
|152> Ti>    4.00000000000   -3.25401964873   -1.48054676798    1.98192821856
|153> NewECP
|154> N_core 0
|155>   lmax f
|156>   s 2
|157>    1      0.860000       9.191690  2
|158>    2      0.172000       0.008301  2
|159>   p 2
|160>    1      0.860000      17.997720  2
|161>    2      0.172000      -0.032600  2
|162>   d 2
|163>    1      1.600000      -9.504310  2
|164>    2      0.320000      -0.151370  2
|165>   f 1
|166>    1      1.000000000    0.000000000 2
|167> end
|168> Ti>    4.00000000000    0.00000000000    0.00000000000   -4.52611107891
|169> NewECP
|170> N_core 0
|171>   lmax f
|172>   s 2
|173>    1      0.860000       9.191690  2
|174>    2      0.172000       0.008301  2
|175>   p 2
|176>    1      0.860000      17.997720  2
|177>    2      0.172000      -0.032600  2
|178>   d 2
|179>    1      1.600000      -9.504310  2
|180>    2      0.320000      -0.151370  2
|181>   f 1
|182>    1      1.000000000    0.000000000 2
|183> end
|184> Ti>    4.00000000000   -3.25401964873    2.96109353596   -1.27209143018
|185> NewECP
|186> N_core 0
|187>   lmax f
|188>   s 2
|189>    1      0.860000       9.191690  2
|190>    2      0.172000       0.008301  2
|191>   p 2
|192>    1      0.860000      17.997720  2
|193>    2      0.172000      -0.032600  2
|194>   d 2
|195>    1      1.600000      -9.504310  2
|196>    2      0.320000      -0.151370  2
|197>   f 1
|198>    1      1.000000000    0.000000000 2
|199> end
|200> Ti>    4.00000000000    3.25401964873    2.96109353596   -1.27209143018
|201> NewECP
|202> N_core 0
|203>   lmax f
|204>   s 2
|205>    1      0.860000       9.191690  2
|206>    2      0.172000       0.008301  2
|207>   p 2
|208>    1      0.860000      17.997720  2
|209>    2      0.172000      -0.032600  2
|210>   d 2
|211>    1      1.600000      -9.504310  2
|212>    2      0.320000      -0.151370  2
|213>   f 1
|214>    1      1.000000000    0.000000000 2
|215> end
|216> Ti>    4.00000000000    3.25401964873   -2.96109353596   -1.27209143018
|217> NewECP
|218> N_core 0
|219>   lmax f
|220>   s 2
|221>    1      0.860000       9.191690  2
|222>    2      0.172000       0.008301  2
|223>   p 2
|224>    1      0.860000      17.997720  2
|225>    2      0.172000      -0.032600  2
|226>   d 2
|227>    1      1.600000      -9.504310  2
|228>    2      0.320000      -0.151370  2
|229>   f 1
|230>    1      1.000000000    0.000000000 2
|231> end
|232> Ti>    4.00000000000   -3.25401964873   -2.96109353596   -1.27209143018
|233> NewECP
|234> N_core 0
|235>   lmax f
|236>   s 2
|237>    1      0.860000       9.191690  2
|238>    2      0.172000       0.008301  2
|239>   p 2
|240>    1      0.860000      17.997720  2
|241>    2      0.172000      -0.032600  2
|242>   d 2
|243>    1      1.600000      -9.504310  2
|244>    2      0.320000      -0.151370  2
|245>   f 1
|246>    1      1.000000000    0.000000000 2
|247> end
|248> Ti>    4.00000000000    0.00000000000    4.44164030394   -1.27209143018
|249> NewECP
|250> N_core 0
|251>   lmax f
|252>   s 2
|253>    1      0.860000       9.191690  2
|254>    2      0.172000       0.008301  2
|255>   p 2
|256>    1      0.860000      17.997720  2
|257>    2      0.172000      -0.032600  2
|258>   d 2
|259>    1      1.600000      -9.504310  2
|260>    2      0.320000      -0.151370  2
|261>   f 1
|262>    1      1.000000000    0.000000000 2
|263> end
|264> Ti>    4.00000000000    0.00000000000   -4.44164030394   -1.27209143018
|265> NewECP
|266> N_core 0
|267>   lmax f
|268>   s 2
|269>    1      0.860000       9.191690  2
|270>    2      0.172000       0.008301  2
|271>   p 2
|272>    1      0.860000      17.997720  2
|273>    2      0.172000      -0.032600  2
|274>   d 2
|275>    1      1.600000      -9.504310  2
|276>    2      0.320000      -0.151370  2
|277>   f 1
|278>    1      1.000000000    0.000000000 2
|279> end
|280> Ti>    4.00000000000    0.00000000000    2.96109353596   -4.52611107891
|281> NewECP
|282> N_core 0
|283>   lmax f
|284>   s 2
|285>    1      0.860000       9.191690  2
|286>    2      0.172000       0.008301  2
|287>   p 2
|288>    1      0.860000      17.997720  2
|289>    2      0.172000      -0.032600  2
|290>   d 2
|291>    1      1.600000      -9.504310  2
|292>    2      0.320000      -0.151370  2
|293>   f 1
|294>    1      1.000000000    0.000000000 2
|295> end
|296> Ti>    4.00000000000    0.00000000000   -2.96109353596   -4.52611107891
|297> NewECP
|298> N_core 0
|299>   lmax f
|300>   s 2
|301>    1      0.860000       9.191690  2
|302>    2      0.172000       0.008301  2
|303>   p 2
|304>    1      0.860000      17.997720  2
|305>    2      0.172000      -0.032600  2
|306>   d 2
|307>    1      1.600000      -9.504310  2
|308>    2      0.320000      -0.151370  2
|309>   f 1
|310>    1      1.000000000    0.000000000 2
|311> end
|312> Ti>    4.00000000000    0.00000000000    1.48054676798    5.23594786729
|313> NewECP
|314> N_core 0
|315>   lmax f
|316>   s 2
|317>    1      0.860000       9.191690  2
|318>    2      0.172000       0.008301  2
|319>   p 2
|320>    1      0.860000      17.997720  2
|321>    2      0.172000      -0.032600  2
|322>   d 2
|323>    1      1.600000      -9.504310  2
|324>    2      0.320000      -0.151370  2
|325>   f 1
|326>    1      1.000000000    0.000000000 2
|327> end
|328> Ti>    4.00000000000    0.00000000000   -1.48054676798    5.23594786729
|329> NewECP
|330> N_core 0
|331>   lmax f
|332>   s 2
|333>    1      0.860000       9.191690  2
|334>    2      0.172000       0.008301  2
|335>   p 2
|336>    1      0.860000      17.997720  2
|337>    2      0.172000      -0.032600  2
|338>   d 2
|339>    1      1.600000      -9.504310  2
|340>    2      0.320000      -0.151370  2
|341>   f 1
|342>    1      1.000000000    0.000000000 2
|343> end
|344> Ti>    4.00000000000   -3.25401964873    1.48054676798   -4.52611107891
|345> NewECP
|346> N_core 0
|347>   lmax f
|348>   s 2
|349>    1      0.860000       9.191690  2
|350>    2      0.172000       0.008301  2
|351>   p 2
|352>    1      0.860000      17.997720  2
|353>    2      0.172000      -0.032600  2
|354>   d 2
|355>    1      1.600000      -9.504310  2
|356>    2      0.320000      -0.151370  2
|357>   f 1
|358>    1      1.000000000    0.000000000 2
|359> end
|360> Ti>    4.00000000000    3.25401964873    1.48054676798   -4.52611107891
|361> NewECP
|362> N_core 0
|363>   lmax f
|364>   s 2
|365>    1      0.860000       9.191690  2
|366>    2      0.172000       0.008301  2
|367>   p 2
|368>    1      0.860000      17.997720  2
|369>    2      0.172000      -0.032600  2
|370>   d 2
|371>    1      1.600000      -9.504310  2
|372>    2      0.320000      -0.151370  2
|373>   f 1
|374>    1      1.000000000    0.000000000 2
|375> end
|376> Ti>    4.00000000000    3.25401964873   -1.48054676798   -4.52611107891
|377> NewECP
|378> N_core 0
|379>   lmax f
|380>   s 2
|381>    1      0.860000       9.191690  2
|382>    2      0.172000       0.008301  2
|383>   p 2
|384>    1      0.860000      17.997720  2
|385>    2      0.172000      -0.032600  2
|386>   d 2
|387>    1      1.600000      -9.504310  2
|388>    2      0.320000      -0.151370  2
|389>   f 1
|390>    1      1.000000000    0.000000000 2
|391> end
|392> Ti>    4.00000000000   -3.25401964873   -1.48054676798   -4.52611107891
|393> NewECP
|394> N_core 0
|395>   lmax f
|396>   s 2
|397>    1      0.860000       9.191690  2
|398>    2      0.172000       0.008301  2
|399>   p 2
|400>    1      0.860000      17.997720  2
|1306> N_core 0
|1307>   lmax f
|1308>   s 2
|1309>    1      0.860000       9.191690  2
|1310>    2      0.172000       0.008301  2
|1311>   p 2
|1312>    1      0.860000      17.997720  2
|1313>    2      0.172000      -0.032600  2
|1314>   d 2
|1315>    1      1.600000      -9.504310  2
|1316>    2      0.320000      -0.151370  2
|1317>   f 1
|1318>    1      1.000000000    0.000000000 2
|1319> end
|1320> Ti>    4.00000000000    3.25401964873   -5.92218707193    5.23594786729
|1321> NewECP
|1322> N_core 0
|1323>   lmax f
|1324>   s 2
|1325>    1      0.860000       9.191690  2
|1326>    2      0.172000       0.008301  2
|1327>   p 2
|1328>    1      0.860000      17.997720  2
|1329>    2      0.172000      -0.032600  2
|1330>   d 2
|1331>    1      1.600000      -9.504310  2
|1332>    2      0.320000      -0.151370  2
|1333>   f 1
|1334>    1      1.000000000    0.000000000 2
|1335> end
|1336> Ti>    4.00000000000   -3.25401964873   -5.92218707193    5.23594786729
|1337> NewECP
|1338> N_core 0
|1339>   lmax f
|1340>   s 2
|1341>    1      0.860000       9.191690  2
|1342>    2      0.172000       0.008301  2
|1343>   p 2
|1344>    1      0.860000      17.997720  2
|1345>    2      0.172000      -0.032600  2
|1346>   d 2
|1347>    1      1.600000      -9.504310  2
|1348>    2      0.320000      -0.151370  2
|1349>   f 1
|1350>    1      1.000000000    0.000000000 2
|1351> end
|1352> Ti>    4.00000000000   -3.25401964873    2.96109353596   -7.78013072764
|1353> NewECP
|1354> N_core 0
|1355>   lmax f
|1356>   s 2
|1357>    1      0.860000       9.191690  2
|1358>    2      0.172000       0.008301  2
|1359>   p 2
|1360>    1      0.860000      17.997720  2
|1361>    2      0.172000      -0.032600  2
|1362>   d 2
|1363>    1      1.600000      -9.504310  2
|1364>    2      0.320000      -0.151370  2
|1365>   f 1
|1366>    1      1.000000000    0.000000000 2
|1367> end
|1368> Ti>    4.00000000000    3.25401964873    2.96109353596   -7.78013072764
|1369> NewECP
|1370> N_core 0
|1371>   lmax f
|1372>   s 2
|1373>    1      0.860000       9.191690  2
|1374>    2      0.172000       0.008301  2
|1375>   p 2
|1376>    1      0.860000      17.997720  2
|1377>    2      0.172000      -0.032600  2
|1378>   d 2
|1379>    1      1.600000      -9.504310  2
|1380>    2      0.320000      -0.151370  2
|1381>   f 1
|1382>    1      1.000000000    0.000000000 2
|1383> end
|1384> Ti>    4.00000000000    3.25401964873   -2.96109353596   -7.78013072764
|1385> NewECP
|1386> N_core 0
|1387>   lmax f
|1388>   s 2
|1389>    1      0.860000       9.191690  2
|1390>    2      0.172000       0.008301  2
|1391>   p 2
|1392>    1      0.860000      17.997720  2
|1393>    2      0.172000      -0.032600  2
|1394>   d 2
|1395>    1      1.600000      -9.504310  2
|1396>    2      0.320000      -0.151370  2
|1397>   f 1
|1398>    1      1.000000000    0.000000000 2
|1399> end
|1400> Ti>    4.00000000000   -3.25401964873   -2.96109353596   -7.78013072764
|1401> NewECP
|1402> N_core 0
|1403>   lmax f
|1404>   s 2
|1405>    1      0.860000       9.191690  2
|1406>    2      0.172000       0.008301  2
|1407>   p 2
|1408>    1      0.860000      17.997720  2
|1409>    2      0.172000      -0.032600  2
|1410>   d 2
|1411>    1      1.600000      -9.504310  2
|1412>    2      0.320000      -0.151370  2
|1413>   f 1
|1414>    1      1.000000000    0.000000000 2
|1415> end
|1416> Ti>    4.00000000000    0.00000000000    4.44164030394   -7.78013072764
|1417> NewECP
|1418> N_core 0
|1419>   lmax f
|1420>   s 2
|1421>    1      0.860000       9.191690  2
|1422>    2      0.172000       0.008301  2
|1423>   p 2
|1424>    1      0.860000      17.997720  2
|1425>    2      0.172000      -0.032600  2
|1426>   d 2
|1427>    1      1.600000      -9.504310  2
|1428>    2      0.320000      -0.151370  2
|1429>   f 1
|1430>    1      1.000000000    0.000000000 2
|1431> end
|1432> Ti>    4.00000000000    0.00000000000   -4.44164030394   -7.78013072764
|1433> NewECP
|1434> N_core 0
|1435>   lmax f
|1436>   s 2
|1437>    1      0.860000       9.191690  2
|1438>    2      0.172000       0.008301  2
|1439>   p 2
|1440>    1      0.860000      17.997720  2
|1441>    2      0.172000      -0.032600  2
|1442>   d 2
|1443>    1      1.600000      -9.504310  2
|1444>    2      0.320000      -0.151370  2
|1445>   f 1
|1446>    1      1.000000000    0.000000000 2
|1447> end
|1448> Ti>    4.00000000000    0.00000000000    2.96109353596    8.48996751602
|1449> NewECP
|1450> N_core 0
|1451>   lmax f
|1452>   s 2
|1453>    1      0.860000       9.191690  2
|1454>    2      0.172000       0.008301  2
|1455>   p 2
|1456>    1      0.860000      17.997720  2
|1457>    2      0.172000      -0.032600  2
|1458>   d 2
|1459>    1      1.600000      -9.504310  2
|1460>    2      0.320000      -0.151370  2
|1461>   f 1
|1462>    1      1.000000000    0.000000000 2
|1463> end
|1464> Ti>    4.00000000000    0.00000000000   -2.96109353596    8.48996751602
|1465> NewECP
|1466> N_core 0
|1467>   lmax f
|1468>   s 2
|1469>    1      0.860000       9.191690  2
|1470>    2      0.172000       0.008301  2
|1471>   p 2
|1472>    1      0.860000      17.997720  2
|1473>    2      0.172000      -0.032600  2
|1474>   d 2
|1475>    1      1.600000      -9.504310  2
|1476>    2      0.320000      -0.151370  2
|1477>   f 1
|1478>    1      1.000000000    0.000000000 2
|1479> end
|1480> Ti>    4.00000000000   -6.50803929747    5.92218707193    1.98192821856
|1481> NewECP
|1482> N_core 0
|1483>   lmax f
|1484>   s 2
|1485>    1      0.860000       9.191690  2
|1486>    2      0.172000       0.008301  2
|1487>   p 2
|1488>    1      0.860000      17.997720  2
|1489>    2      0.172000      -0.032600  2
|1490>   d 2
|1491>    1      1.600000      -9.504310  2
|1492>    2      0.320000      -0.151370  2
|1493>   f 1
|1494>    1      1.000000000    0.000000000 2
|1495> end
|1496> Ti>    4.00000000000    6.50803929747    5.92218707193    1.98192821856
|1497> NewECP
|1498> N_core 0
|1499>   lmax f
|1500>   s 2
|1501>    1      0.860000       9.191690  2
|1502>    2      0.172000       0.008301  2
|1503>   p 2
|1504>    1      0.860000      17.997720  2
|1505>    2      0.172000      -0.032600  2
|1506>   d 2
|1507>    1      1.600000      -9.504310  2
|1508>    2      0.320000      -0.151370  2
|1509>   f 1
|1510>    1      1.000000000    0.000000000 2
|1511> end
|1512> Ti>    4.00000000000    6.50803929747   -5.92218707193    1.98192821856
|1513> NewECP
|1514> N_core 0
|1515>   lmax f
|1516>   s 2
|1517>    1      0.860000       9.191690  2
|1518>    2      0.172000       0.008301  2
|1519>   p 2
|1520>    1      0.860000      17.997720  2
|1521>    2      0.172000      -0.032600  2
|1522>   d 2
|1523>    1      1.600000      -9.504310  2
|1524>    2      0.320000      -0.151370  2
|1525>   f 1
|1526>    1      1.000000000    0.000000000 2
|1527> end
|1528> Ti>    4.00000000000   -6.50803929747   -5.92218707193    1.98192821856
|1529> NewECP
|1530> N_core 0
|1531>   lmax f
|1532>   s 2
|1533>    1      0.860000       9.191690  2
|1534>    2      0.172000       0.008301  2
|1535>   p 2
|1536>    1      0.860000      17.997720  2
|1537>    2      0.172000      -0.032600  2
|1538>   d 2
|1539>    1      1.600000      -9.504310  2
|1540>    2      0.320000      -0.151370  2
|1541>   f 1
|1542>    1      1.000000000    0.000000000 2
|1543> end
|1544> Ti>    4.00000000000    0.00000000000    7.40273383991    5.23594786729
|1545> NewECP
|1546> N_core 0
|1547>   lmax f
|1548>   s 2
|1549>    1      0.860000       9.191690  2
|1550>    2      0.172000       0.008301  2
|1551>   p 2
|1552>    1      0.860000      17.997720  2
|1553>    2      0.172000      -0.032600  2
|1554>   d 2
|1555>    1      1.600000      -9.504310  2
|1556>    2      0.320000      -0.151370  2
|1557>   f 1
|1558>    1      1.000000000    0.000000000 2
|1559> end
|1560> Ti>    4.00000000000    0.00000000000   -7.40273383991    5.23594786729
|1561> NewECP
|1562> N_core 0
|1563>   lmax f
|1564>   s 2
|1565>    1      0.860000       9.191690  2
|1566>    2      0.172000       0.008301  2
|1567>   p 2
|1568>    1      0.860000      17.997720  2
|1569>    2      0.172000      -0.032600  2
|1570>   d 2
|1571>    1      1.600000      -9.504310  2
|1572>    2      0.320000      -0.151370  2
|1573>   f 1
|1574>    1      1.000000000    0.000000000 2
|1575> end
|1576> Ti>    4.00000000000   -3.25401964873    1.48054676798    8.48996751602
|1577> NewECP
|1578> N_core 0
|1579>   lmax f
|1580>   s 2
|1581>    1      0.860000       9.191690  2
|1582>    2      0.172000       0.008301  2
|1583>   p 2
|1584>    1      0.860000      17.997720  2
|1585>    2      0.172000      -0.032600  2
|1586>   d 2
|1587>    1      1.600000      -9.504310  2
|1588>    2      0.320000      -0.151370  2
|1589>   f 1
|1590>    1      1.000000000    0.000000000 2
|1591> end
|1592> Ti>    4.00000000000    3.25401964873    1.48054676798    8.48996751602
|1593> NewECP
|1594> N_core 0
|1595>   lmax f
|1596>   s 2
|1597>    1      0.860000       9.191690  2
|1598>    2      0.172000       0.008301  2
|1599>   p 2
|1600>    1      0.860000      17.997720  2
|1601>    2      0.172000      -0.032600  2
|1602>   d 2
|1603>    1      1.600000      -9.504310  2
|1604>    2      0.320000      -0.151370  2
|1605>   f 1
|1606>    1      1.000000000    0.000000000 2
|1607> end
|1608> Ti>    4.00000000000    3.25401964873   -1.48054676798    8.48996751602
|1609> NewECP
|1610> N_core 0
|1611>   lmax f
|1612>   s 2
|1613>    1      0.860000       9.191690  2
|1614>    2      0.172000       0.008301  2
|1615>   p 2
|1616>    1      0.860000      17.997720  2
|1617>    2      0.172000      -0.032600  2
|1618>   d 2
|1619>    1      1.600000      -9.504310  2
|1620>    2      0.320000      -0.151370  2
|1621>   f 1
|1622>    1      1.000000000    0.000000000 2
|1623> end
|1624> Ti>    4.00000000000   -3.25401964873   -1.48054676798    8.48996751602
|1625> NewECP
|1626> N_core 0
|1627>   lmax f
|1628>   s 2
|1629>    1      0.860000       9.191690  2
|1630>    2      0.172000       0.008301  2
|1631>   p 2
|1632>    1      0.860000      17.997720  2
|1633>    2      0.172000      -0.032600  2
|1634>   d 2
|1635>    1      1.600000      -9.504310  2
|1636>    2      0.320000      -0.151370  2
|1637>   f 1
|1638>    1      1.000000000    0.000000000 2
|1639> end
|1640> Ti>    4.00000000000   -6.50803929747    4.44164030394    5.23594786729
|1641> NewECP
|1642> N_core 0
|1643>   lmax f
|1644>   s 2
|1645>    1      0.860000       9.191690  2
|1646>    2      0.172000       0.008301  2
|1647>   p 2
|1648>    1      0.860000      17.997720  2
|1649>    2      0.172000      -0.032600  2
|1650>   d 2
|1651>    1      1.600000      -9.504310  2
|1652>    2      0.320000      -0.151370  2
|1653>   f 1
|1654>    1      1.000000000    0.000000000 2
|1655> end
|1656> Ti>    4.00000000000    6.50803929747    4.44164030394    5.23594786729
|1657> NewECP
|1658> N_core 0
|1659>   lmax f
|1660>   s 2
|1661>    1      0.860000       9.191690  2
|1662>    2      0.172000       0.008301  2
|1663>   p 2
|1664>    1      0.860000      17.997720  2
|1665>    2      0.172000      -0.032600  2
|1666>   d 2
|1667>    1      1.600000      -9.504310  2
|1668>    2      0.320000      -0.151370  2
|1669>   f 1
|1670>    1      1.000000000    0.000000000 2
|1671> end
|1672> Ti>    4.00000000000    6.50803929747   -4.44164030394    5.23594786729
|1673> NewECP
|1674> N_core 0
|1675>   lmax f
|1676>   s 2
|1677>    1      0.860000       9.191690  2
|1678>    2      0.172000       0.008301  2
|1679>   p 2
|1680>    1      0.860000      17.997720  2
|1681>    2      0.172000      -0.032600  2
|1682>   d 2
|1683>    1      1.600000      -9.504310  2
|1684>    2      0.320000      -0.151370  2
|1685>   f 1
|1686>    1      1.000000000    0.000000000 2
|1687> end
|1688> Ti>    4.00000000000   -6.50803929747   -4.44164030394    5.23594786729
|1689> NewECP
|1690> N_core 0
|1691>   lmax f
|1692>   s 2
|1693>    1      0.860000       9.191690  2
|1694>    2      0.172000       0.008301  2
|1695>   p 2
|1696>    1      0.860000      17.997720  2
|1697>    2      0.172000      -0.032600  2
|1698>   d 2
|1699>    1      1.600000      -9.504310  2
|1700>    2      0.320000      -0.151370  2
|1701>   f 1
|1702>    1      1.000000000    0.000000000 2
|1703> end
|1704>   end
|1705> endd                         ****END OF INPUT****

CARTESIAN COORDINATES (ANGSTROEM)
---------------------------------
  O      0.000000    0.000000    0.000000
  Ti     0.000000    1.480547   -1.272091
  Ti     0.000000   -1.480547   -1.272091
  Ti     0.000000    0.000000    1.981928
  O     -0.000000    0.000000   -2.544183
  O     -1.272091    1.480547    1.981928
  O      1.272091    1.480547    1.981928
  O      1.272091   -1.480547    1.981928
  O     -1.272091   -1.480547    1.981928
  Ti>   -3.254020    0.000000   -1.272091
  Ti>    3.254020    0.000000   -1.272091
  Ti>    0.000000    2.961094    1.981928
  Ti>    0.000000   -2.961094    1.981928
  Ti>   -3.254020    1.480547    1.981928
  Ti>    3.254020    1.480547    1.981928
  Ti>    3.254020   -1.480547    1.981928
  Ti>   -3.254020   -1.480547    1.981928
  Ti>    0.000000    0.000000   -4.526111
  Ti>   -3.254020    2.961094   -1.272091
  Ti>    3.254020    2.961094   -1.272091
  Ti>    3.254020   -2.961094   -1.272091
  Ti>   -3.254020   -2.961094   -1.272091
  Ti>    0.000000    4.441640   -1.272091
  Ti>    0.000000   -4.441640   -1.272091
  Ti>    0.000000    2.961094   -4.526111
  Ti>    0.000000   -2.961094   -4.526111
  Ti>    0.000000    1.480547    5.235948
  Ti>    0.000000   -1.480547    5.235948
  Ti>   -3.254020    1.480547   -4.526111
  Ti>    3.254020    1.480547   -4.526111
  Ti>    3.254020   -1.480547   -4.526111
  Ti>   -3.254020   -1.480547   -4.526111
  Ti>   -3.254020    4.441640    1.981928
  Ti>    3.254020    4.441640    1.981928
  Ti>    3.254020   -4.441640    1.981928
  Ti>   -3.254020   -4.441640    1.981928
  Ti>   -3.254020    0.000000    5.235948
  Ti>    3.254020    0.000000    5.235948
  Ti>    0.000000    5.922187    1.981928
  Ti>    0.000000   -5.922187    1.981928
  Ti>   -6.508039    1.480547   -1.272091
  Ti>    6.508039    1.480547   -1.272091
  Ti>    6.508039   -1.480547   -1.272091
  Ti>   -6.508039   -1.480547   -1.272091
  Ti>   -6.508039    0.000000    1.981928
  Ti>    6.508039    0.000000    1.981928
  Ti>   -3.254020    2.961094    5.235948
  Ti>    3.254020    2.961094    5.235948
  Ti>    3.254020   -2.961094    5.235948
  Ti>   -3.254020   -2.961094    5.235948
  Ti>    0.000000    4.441640    5.235948
  Ti>    0.000000   -4.441640    5.235948
  Ti>   -3.254020    5.922187   -1.272091
  Ti>    3.254020    5.922187   -1.272091
  Ti>    3.254020   -5.922187   -1.272091
  Ti>   -3.254020   -5.922187   -1.272091
  Ti>   -3.254020    4.441640   -4.526111
  Ti>    3.254020    4.441640   -4.526111
  Ti>    3.254020   -4.441640   -4.526111
  Ti>   -3.254020   -4.441640   -4.526111
  Ti>   -6.508039    2.961094    1.981928
  Ti>    6.508039    2.961094    1.981928
  Ti>    6.508039   -2.961094    1.981928
  Ti>   -6.508039   -2.961094    1.981928
  Ti>    0.000000    5.922187   -4.526111
  Ti>    0.000000   -5.922187   -4.526111
  Ti>    0.000000    7.402734   -1.272091
  Ti>    0.000000   -7.402734   -1.272091
  Ti>    0.000000    1.480547   -7.780131
  Ti>    0.000000   -1.480547   -7.780131
  Ti>   -6.508039    0.000000   -4.526111
  Ti>    6.508039    0.000000   -4.526111
  Ti>   -6.508039    4.441640   -1.272091
  Ti>    6.508039    4.441640   -1.272091
  Ti>    6.508039   -4.441640   -1.272091
  Ti>   -6.508039   -4.441640   -1.272091
  Ti>   -3.254020    7.402734    1.981928
  Ti>    3.254020    7.402734    1.981928
  Ti>    3.254020   -7.402734    1.981928
  Ti>   -3.254020   -7.402734    1.981928
  Ti>   -3.254020    0.000000   -7.780131
  Ti>    3.254020    0.000000   -7.780131
  Ti>   -6.508039    1.480547    5.235948
  Ti>    6.508039    1.480547    5.235948
  Ti>    6.508039   -1.480547    5.235948
  Ti>   -6.508039   -1.480547    5.235948
  Ti>    0.000000    0.000000    8.489968
  Ti>   -3.254020    5.922187    5.235948
  Ti>    3.254020    5.922187    5.235948
  Ti>    3.254020   -5.922187    5.235948
  Ti>   -3.254020   -5.922187    5.235948
  Ti>   -3.254020    2.961094   -7.780131
  Ti>    3.254020    2.961094   -7.780131
  Ti>    3.254020   -2.961094   -7.780131
  Ti>   -3.254020   -2.961094   -7.780131
  Ti>    0.000000    4.441640   -7.780131
  Ti>    0.000000   -4.441640   -7.780131
  Ti>    0.000000    2.961094    8.489968
  Ti>    0.000000   -2.961094    8.489968
  Ti>   -6.508039    5.922187    1.981928
  Ti>    6.508039    5.922187    1.981928
  Ti>    6.508039   -5.922187    1.981928
  Ti>   -6.508039   -5.922187    1.981928
  Ti>    0.000000    7.402734    5.235948
  Ti>    0.000000   -7.402734    5.235948
  Ti>   -3.254020    1.480547    8.489968
  Ti>    3.254020    1.480547    8.489968
  Ti>    3.254020   -1.480547    8.489968
  Ti>   -3.254020   -1.480547    8.489968
  Ti>   -6.508039    4.441640    5.235948
  Ti>    6.508039    4.441640    5.235948
  Ti>    6.508039   -4.441640    5.235948
  Ti>   -6.508039   -4.441640    5.235948

 Total Charge           Charge          ....    0
 Multiplicity           Mult            ....    1
 Number of Electrons    NEL             ....  106
 Basis Dimension        Dim             ....  177

ORBITAL ENERGIES
----------------

  NO   OCC          E(Eh)            E(eV)
   0   2.0000    -177.796315     -4838.0837
   1   2.0000    -177.796265     -4838.0823
   2   2.0000    -177.665671     -4834.5287
   3   2.0000     -19.569096      -532.5022
   4   2.0000     -19.569024      -532.5002
   5   2.0000     -19.455630      -529.4146
   6   2.0000     -18.627274      -506.8739
   7   2.0000     -18.556626      -504.9515
   8   2.0000     -18.556594      -504.9506
   9   2.0000     -18.556423      -504.9459
  10   2.0000     -18.556362      -504.9443
  11   2.0000     -16.371266      -445.4848
  12   2.0000     -16.371239      -445.4841
  13   2.0000     -16.363521      -445.2740
  14   2.0000     -16.363473      -445.2727
  15   2.0000     -16.358204      -445.1294
  16   2.0000     -16.358157      -445.1281
  17   2.0000     -16.250042      -442.1861
  18   2.0000     -16.248880      -442.1545
  19   2.0000     -16.248319      -442.1392
  20   2.0000      -2.198065       -59.8124
  21   2.0000      -2.197499       -59.7970
  22   2.0000      -2.148727       -58.4698
  23   2.0000      -1.343477       -36.5579
  24   2.0000      -1.341569       -36.5059
  25   2.0000      -1.337788       -36.4030
  26   2.0000      -1.337518       -36.3957
  27   2.0000      -1.330667       -36.2093
  28   2.0000      -1.325430       -36.0668
  29   2.0000      -1.305412       -35.5221
  30   2.0000      -1.299925       -35.3728
  31   2.0000      -1.292087       -35.1595
  32   2.0000      -0.703363       -19.1395
  33   2.0000      -0.691714       -18.8225
  34   2.0000      -0.676647       -18.4125
  35   2.0000      -0.675675       -18.3861
  36   2.0000      -0.668654       -18.1950
  37   2.0000      -0.236722        -6.4415
  38   2.0000      -0.229492        -6.2448
  39   2.0000      -0.207183        -5.6377
  40   2.0000      -0.203815        -5.5461
  41   2.0000      -0.199822        -5.4374
  42   2.0000      -0.197135        -5.3643
  43   2.0000      -0.168276        -4.5790
  44   2.0000      -0.163522        -4.4497
  45   2.0000      -0.154632        -4.2077
  46   2.0000      -0.145405        -3.9567
  47   2.0000      -0.142617        -3.8808
  48   2.0000      -0.142175        -3.8688
  49   2.0000      -0.139819        -3.8047
  50   2.0000      -0.133576        -3.6348
  51   2.0000      -0.114237        -3.1085
  52   2.0000      -0.050189        -1.3657
  53   0.0000      -0.024530        -0.6675
  54   0.0000      -0.021649        -0.5891
  55   0.0000      -0.018913        -0.5146
  56   0.0000      -0.013425        -0.3653
  57   0.0000      -0.004530        -0.1233

MULLIKEN ATOMIC CHARGES
-----------------------
   0 O :   -0.237929
   1 Ti:    2.679589
   2 Ti:    2.679619
   3 Ti:    1.607087
   4 O :   -1.003650
   5 O :   -1.431243
   6 O :   -1.431250
   7 O :   -1.431106
   8 O :   -1.431116
   9 Q :    4.000000
  10 Q :    4.000000
  11 Q :    4.000000
  12 Q :    4.000000
  13 Q :    4.000000
  14 Q :    4.000000
  15 Q :    4.000000
  16 Q :    4.000000
  17 Q :    4.000000
  18 Q :    4.000000
  19 Q :    4.000000
  20 Q :    4.000000
  21 Q :    4.000000
  22 Q :    4.000000
  23 Q :    4.000000
  24 Q :    4.000000
  25 Q :    4.000000
  26 Q :    4.000000
  27 Q :    4.000000
  28 Q :    4.000000
  29 Q :    4.000000
  30 Q :    4.000000
  31 Q :    4.000000
  32 Q :    4.000000
  33 Q :    4.000000
  34 Q :    4.000000
  35 Q :    4.000000
  36 Q :    4.000000
  37 Q :    4.000000
  38 Q :    4.000000
  39 Q :    4.000000
  40 Q :    4.000000
  41 Q :    4.000000
  42 Q :    4.000000
  43 Q :    4.000000
  44 Q :    4.000000
  45 Q :    4.000000
  46 Q :    4.000000
  47 Q :    4.000000
  48 Q :    4.000000
  49 Q :    4.000000
  50 Q :    4.000000
  51 Q :    4.000000
  52 Q :    4.000000
  53 Q :    4.000000
  54 Q :    4.000000
  55 Q :    4.000000
  56 Q :    4.000000
  57 Q :    4.000000
  58 Q :    4.000000
  59 Q :    4.000000
  60 Q :    4.000000
  61 Q :    4.000000
  62 Q :    4.000000
  63 Q :    4.000000
  64 Q :    4.000000
  65 Q :    4.000000
  66 Q :    4.000000
  67 Q :    4.000000
  68 Q :    4.000000
  69 Q :    4.000000
  70 Q :    4.000000
  71 Q :    4.000000
  72 Q :    4.000000
  73 Q :    4.000000
  74 Q :    4.000000
  75 Q :    4.000000
  76 Q :    4.000000
  77 Q :    4.000000
  78 Q :    4.000000
  79 Q :    4.000000
  80 Q :    4.000000
  81 Q :    4.000000
  82 Q :    4.000000
  83 Q :    4.000000
  84 Q :    4.000000
  85 Q :    4.000000
  86 Q :    4.000000
  87 Q :    4.000000
  88 Q :    4.000000
  89 Q :    4.000000
  90 Q :    4.000000
  91 Q :    4.000000
  92 Q :    4.000000
  93 Q :    4.000000
  94 Q :    4.000000
  95 Q :    4.000000
  96 Q :    4.000000
  97 Q :    4.000000
  98 Q :    4.000000
  99 Q :    4.000000
 100 Q :    4.000000
 101 Q :    4.000000
 102 Q :    4.000000
 103 Q :    4.000000
 104 Q :    4.000000
 105 Q :    4.000000
 106 Q :    4.000000
 107 Q :    4.000000
 108 Q :    4.000000
 109 Q :    4.000000
 110 Q :    4.000000
 111 Q :    4.000000
 112 Q :    4.000000
Sum of atomic charges:  416.0000000

LOEWDIN ATOMIC CHARGES
----------------------
   0 O :   -0.372767
   1 Ti:    2.442370
   2 Ti:    2.442331
   3 Ti:    0.640109
   4 O :   -0.522509
   5 O :   -1.157446
   6 O :   -1.157454
   7 O :   -1.157313
   8 O :   -1.157321
   9 Q :    4.000000
  10 Q :    4.000000
  11 Q :    4.000000
  12 Q :    4.000000
  13 Q :    4.000000
  14 Q :    4.000000
  15 Q :    4.000000
  16 Q :    4.000000
  17 Q :    4.000000
  18 Q :    4.000000
  19 Q :    4.000000
  20 Q :    4.000000
  21 Q :    4.000000
  22 Q :    4.000000
  23 Q :    4.000000
  24 Q :    4.000000
  25 Q :    4.000000
  26 Q :    4.000000
  27 Q :    4.000000
  28 Q :    4.000000
  29 Q :    4.000000
  30 Q :    4.000000
  31 Q :    4.000000
  32 Q :    4.000000
  33 Q :    4.000000
  34 Q :    4.000000
  35 Q :    4.000000
  36 Q :    4.000000
  37 Q :    4.000000
  38 Q :    4.000000
  39 Q :    4.000000
  40 Q :    4.000000
  41 Q :    4.000000
  42 Q :    4.000000
  43 Q :    4.000000
  44 Q :    4.000000
  45 Q :    4.000000
  46 Q :    4.000000
  47 Q :    4.000000
  48 Q :    4.000000
  49 Q :    4.000000
  50 Q :    4.000000
  51 Q :    4.000000
  52 Q :    4.000000
  53 Q :    4.000000
  54 Q :    4.000000
  55 Q :    4.000000
  56 Q :    4.000000
  57 Q :    4.000000
  58 Q :    4.000000
  59 Q :    4.000000
  60 Q :    4.000000
  61 Q :    4.000000
  62 Q :    4.000000
  63 Q :    4.000000
  64 Q :    4.000000
  65 Q :    4.000000
  66 Q :    4.000000
  67 Q :    4.000000
  68 Q :    4.000000
  69 Q :    4.000000
  70 Q :    4.000000
  71 Q :    4.000000
  72 Q :    4.000000
  73 Q :    4.000000
  74 Q :    4.000000
  75 Q :    4.000000
  76 Q :    4.000000
  77 Q :    4.000000
  78 Q :    4.000000
  79 Q :    4.000000
  80 Q :    4.000000
  81 Q :    4.000000
  82 Q :    4.000000
  83 Q :    4.000000
  84 Q :    4.000000
  85 Q :    4.000000
  86 Q :    4.000000
  87 Q :    4.000000
  88 Q :    4.000000
  89 Q :    4.000000
  90 Q :    4.000000
  91 Q :    4.000000
  92 Q :    4.000000
  93 Q :    4.000000
  94 Q :    4.000000
  95 Q :    4.000000
  96 Q :    4.000000
  97 Q :    4.000000
  98 Q :    4.000000
  99 Q :    4.000000
 100 Q :    4.000000
 101 Q :    4.000000
 102 Q :    4.000000
 103 Q :    4.000000
 104 Q :    4.000000
 105 Q :    4.000000
 106 Q :    4.000000
 107 Q :    4.000000
 108 Q :    4.000000
 109 Q :    4.000000
 110 Q :    4.000000
 111 Q :    4.000000
 112 Q :    4.000000

  Mayer bond orders larger than 0.100000
B(  0-O ,  1-Ti) :   0.1737 B(  0-O ,  2-Ti) :   0.1736 B(  1-Ti,  2-Ti) :   0.5916
B(  1-Ti,  3-Ti) :   0.1892 B(  1-Ti,  4-O ) :   0.8149 B(  2-Ti,  3-Ti) :   0.1892
B(  2-Ti,  4-O ) :   0.8157 B(  3-Ti,  5-O ) :   0.8876 B(  3-Ti,  6-O ) :   0.8876
B(  3-Ti,  7-O ) :   0.8879 B(  3-Ti,  8-O ) :   0.8878

FINAL SINGLE POINT ENERGY     -9080.804649794081

DIPOLE MOMENT
-------------
                                X             Y             Z
Electronic contribution:     -0.00053       0.00001     -27.61476
Nuclear contribution   :      0.00000       0.00000     272.74451
                        -----------------------------------------
Total Dipole Moment    :     -0.00053       0.00001     245.12975
                        -----------------------------------------
Magnitude (a.u.)       :    245.12975
Magnitude (Debye)      :    623.07031

Rotational constants in cm-1:     0.037145     0.021447     0.016323
Rotational constants in MHz :  1113.574845   642.968858   489.364678

                             ****ORCA TERMINATED NORMALLY****
TOTAL RUN TIME: 0 days 0 hours 5 minutes 33 seconds 624 msec
