                         Program Version 5.0.2 -  RELEASE  -
|  1> ! VeryTightSCF DLPNO-B2PLYP NormalPNO RIJCOSX SlowConv DIIS NOTRAH
|  2> %maxcore 4000
|  3> %pal
|  4>   nprocs 4
|  5> end
|  6> %method
|  7>    Method DFT
|  8>   RI on
|  9>   RunTyp Energy
| 10> end
| 11> %basis
| 12>   Basis "def2-TZVPP"
| 13>   Aux "def2/J"
| 14>   AuxC "def2-TZVPP/C"
| 15> end
| 16> %scf
| 17>   HFTyp uks
| 18>   Guess Hueckel
| 19>   AutoStart True
| 20>   SCFMode Direct
| 21>   MaxIter 1000
| 22>   sthresh 1e-6
| 23> end
| 24> %coords
| 25>   CTyp xyz
| 26>   Mult 3
| 27>   Units angs
| 28>   coords
| 29> O                      0.00000000000    0.00000000000    0.00000000000
| 30>   end
| 31> end
| 32>
| 33>                          ****END OF INPUT****

CARTESIAN COORDINATES (ANGSTROEM)
---------------------------------
  O      0.000000    0.000000    0.000000

 Total Charge           Charge          ....    0
 Multiplicity           Mult            ....    3
 Number of Electrons    NEL             ....    8
 Basis Dimension        Dim             ....   31

ORBITAL ENERGIES
----------------
                 SPIN UP ORBITALS
  NO   OCC          E(Eh)            E(eV)
   0   1.0000     -19.872659      -540.7625
   1   1.0000      -1.182051       -32.1653
   2   1.0000      -0.562311       -15.3013
   3   1.0000      -0.562311       -15.3013
   4   1.0000      -0.478069       -13.0089
   5   0.0000       0.379458        10.3256
   6   0.0000       0.439327        11.9547
   7   0.0000       0.439327        11.9547
   8   0.0000       0.468194        12.7402
   9   0.0000       1.465402        39.8756

                 SPIN DOWN ORBITALS
  NO   OCC          E(Eh)            E(eV)
   0   1.0000     -19.811009      -539.0850
   1   1.0000      -0.953265       -25.9397
   2   1.0000      -0.414772       -11.2865
   3   0.0000      -0.064368        -1.7515
   4   0.0000      -0.064367        -1.7515
   5   0.0000       0.414022        11.2661
   6   0.0000       0.483980        13.1698
   7   0.0000       0.528547        14.3825

MULLIKEN ATOMIC CHARGES AND SPIN POPULATIONS
--------------------------------------------
   0 O :   -0.000000    2.000000
Sum of atomic charges         :   -0.0000000

LOEWDIN ATOMIC CHARGES AND SPIN POPULATIONS
-------------------------------------------
   0 O :   -0.000000    2.000000

MP2 TOTAL ENERGY:      -75.051850009 Eh
FINAL SINGLE POINT ENERGY       -75.051850008842

DIPOLE MOMENT
-------------
                                X             Y             Z
Electronic contribution:     -0.00000      -0.00000      -0.00000
Nuclear contribution   :      0.00000       0.00000       0.00000
                        -----------------------------------------
Total Dipole Moment    :     -0.00000      -0.00000      -0.00000
                        -----------------------------------------
Magnitude (a.u.)       :      0.00000
Magnitude (Debye)      :      0.00000

Rotational constants in cm-1:     0.000000     0.000000     0.000000
Rotational constants in MHz :     0.000000     0.000000     0.000000

                             ****ORCA TERMINATED NORMALLY****
TOTAL RUN TIME: 0 days 0 hours 0 minutes 1 seconds 819 msec
